; h2rwf_GMX_OPLS.top created by acpype (v: 2023.10.27) on Thu Sep  4 07:59:50 2025

; Include forcefield parameters
#include "ffoplsaa.itp"

; Include h2rwf_GMX.itp topology
#include "h2rwf_GMX.itp"

; Ligand position restraints
#ifdef POSRES_LIG
#include "posre_h2rwf.itp"
#endif

[ system ]
 h2rwf

[ molecules ]
; Compound        nmols
 h2rwf            1     
