h2rwf_GMX.gro created by acpype (v: 2023.10.27) on Thu Sep  4 07:59:50 2025
 39
    1  UNL    C    1   1.091   0.212  -1.322
    1  UNL   C1    2   0.928   0.379  -1.470
    1  UNL   C2    3   0.911   0.240  -1.484
    1  UNL   C3    4   0.990   0.154  -1.413
    1  UNL   C4    5   1.175   0.131  -1.246
    1  UNL   C5    6   1.268   0.188  -1.163
    1  UNL   C6    7   1.278   0.326  -1.154
    1  UNL   C7    8   1.196   0.408  -1.228
    1  UNL   C8    9   1.101   0.352  -1.313
    1  UNL    O   10   1.020   0.430  -1.387
    1  UNL   O1   11   0.857   0.454  -1.534
    1  UNL   O2   12   0.976   0.021  -1.425
    1  UNL    H   13   0.967   0.002  -1.519
    1  UNL   C9   14   0.807   0.186  -1.578
    1  UNL  C10   15   0.796   0.277  -1.701
    1  UNL  C11   16   0.699   0.218  -1.800
    1  UNL  C12   17   0.574   0.293  -1.837
    1  UNL   O3   18   0.722   0.110  -1.849
    1  UNL  C13   19   0.674   0.182  -1.508
    1  UNL  C14   20   0.622   0.296  -1.451
    1  UNL  C15   21   0.499   0.292  -1.386
    1  UNL  C16   22   0.429   0.173  -1.379
    1  UNL  C17   23   0.481   0.059  -1.437
    1  UNL  C18   24   0.603   0.063  -1.502
    1  UNL   H1   25   1.167   0.028  -1.253
    1  UNL   H2   26   1.330   0.128  -1.106
    1  UNL   H3   27   1.349   0.368  -1.091
    1  UNL   H4   28   1.205   0.510  -1.221
    1  UNL   H5   29   0.834   0.088  -1.609
    1  UNL   H6   30   0.893   0.286  -1.747
    1  UNL   H7   31   0.762   0.374  -1.671
    1  UNL   H8   32   0.571   0.386  -1.784
    1  UNL   H9   33   0.488   0.235  -1.811
    1  UNL  H10   34   0.574   0.312  -1.942
    1  UNL  H11   35   0.674   0.385  -1.456
    1  UNL  H12   36   0.461   0.378  -1.344
    1  UNL  H13   37   0.338   0.170  -1.331
    1  UNL  H14   38   0.429  -0.030  -1.431
    1  UNL  H15   39   0.641  -0.022  -1.545
   20.21600    10.80200    17.03600
