Results/Site2/HOLO/ENA1/ENA1-Si
   108
   6.8430000  -1.3700000 -24.8890000   8.5040000   2.6150000 -22.6970000
  11.4430000  -0.1450000 -23.1280000   8.3050000   0.7840000 -25.2900000
   7.0690000  -1.3410000 -22.5920000  10.3580000  -1.7710000 -24.8280000
   8.6800000   4.8800000 -23.0680000  10.2550000   4.5050000 -20.4050000
  12.2630000   0.6190000 -21.1110000   6.7000000   2.3170000 -24.6160000
   9.3270000  -2.9290000 -23.1010000  11.5300000   3.2030000 -21.8390000
   7.6430000   3.4540000 -24.7450000   8.1040000  -3.1100000 -23.9070000
   6.1280000  -0.1190000 -24.8710000  11.6420000   2.1730000 -22.8930000
  11.3390000  -1.5090000 -22.6670000   9.1050000   2.6410000 -21.3980000
   7.1440000   1.0270000 -24.9410000   7.2830000  -1.8470000 -23.6850000
  10.3230000  -2.0980000 -23.6360000   8.2970000   3.7640000 -23.3980000
  10.3380000   3.5460000 -21.1800000  11.8370000   0.8140000 -22.2400000
   5.3720000   2.6280000 -24.0780000   9.3770000  -3.4930000 -21.7500000
  12.7490000   3.9160000 -21.4570000   5.2320000  -0.1010000 -26.1030000
   6.0620000   0.0850000 -27.3710000   4.4060000  -1.3840000 -26.1880000
   7.2580000  -4.3360000 -23.5920000   5.8100000  -4.0880000 -24.0210000
   7.7940000  -5.6070000 -24.2750000   7.2610000  -6.8970000 -23.6650000
   7.0100000   4.7010000 -25.3610000   6.5950000   5.6730000 -24.2530000
   7.9530000   5.4110000 -26.3490000   8.8930000   4.4640000 -27.0800000
  12.6780000  -2.2110000 -22.7990000  13.2710000  -1.9800000 -24.1870000
  12.5300000  -3.7060000 -22.5210000   8.0010000   2.9460000 -20.3850000
   6.6640000   2.3730000 -20.8550000   8.3650000   2.3950000 -19.0080000
  12.7410000   2.4200000 -23.9250000  12.1800000   2.3290000 -25.3440000
  13.8890000   1.4290000 -23.7400000   8.4020000   3.1470000 -25.4340000
   8.4040000  -3.2760000 -24.9210000   5.5430000  -0.0070000 -23.9820000
  10.7270000   2.2150000 -23.4470000  11.0560000  -1.6030000 -21.6390000
   9.5390000   1.6720000 -21.2670000   4.7870000   1.7330000 -24.0330000
   4.8880000   3.3400000 -24.7130000   5.4730000   3.0380000 -23.0950000
   8.5050000  -4.0890000 -21.5800000   9.4120000  -2.6990000 -21.0330000
  10.2510000  -4.1020000 -21.6500000  13.5710000   3.5530000 -22.0370000
  12.9460000   3.7540000 -20.4180000  12.6210000   4.9630000 -21.6360000
   4.5610000   0.7280000 -26.0150000   6.7410000  -0.7350000 -27.4760000
   6.6140000   0.9990000 -27.3050000   5.4120000   0.1220000 -28.2200000
   5.0610000  -2.2250000 -26.2760000   3.7650000  -1.3400000 -27.0440000
   3.8130000  -1.4860000 -25.3030000   7.3060000  -4.4970000 -22.5350000
   5.7740000  -3.9290000 -25.0780000   5.4320000  -3.2230000 -23.5170000
   5.2120000  -4.9390000 -23.7680000   8.8610000  -5.6100000 -24.1950000
   7.4630000  -5.5800000 -25.2920000   7.5710000  -6.9630000 -22.6430000
   7.6460000  -7.7340000 -24.2090000   6.1920000  -6.9000000 -23.7150000
   6.1500000   4.3830000 -25.9130000   7.4620000   5.9840000 -23.7090000
   5.9120000   5.1860000 -23.5880000   6.1210000   6.5280000 -24.6880000
   8.5420000   6.1190000 -25.8050000   7.3380000   5.8770000 -27.0900000
   9.5280000   3.9750000 -26.3720000   9.4910000   5.0190000 -27.7720000
   8.3200000   3.7320000 -27.6100000  13.3480000  -1.7980000 -22.0740000
  12.6150000  -2.3870000 -24.9270000  14.2240000  -2.4610000 -24.2520000
  13.3890000  -0.9300000 -24.3540000  11.8630000  -4.1380000 -23.2380000
  12.1360000  -3.8480000 -21.5360000  13.4870000  -4.1790000 -22.5950000
   7.9040000   4.0090000 -20.3070000   6.7420000   1.3090000 -20.9390000
   6.4130000   2.7890000 -21.8090000   5.9010000   2.6200000 -20.1460000
   8.4670000   1.3310000 -19.0650000   7.5930000   2.6420000 -18.3090000
   9.2900000   2.8250000 -18.6850000  13.1220000   3.4090000 -23.7750000
  11.7940000   1.3450000 -25.5120000  12.9590000   2.5320000 -26.0490000
  11.3950000   3.0460000 -25.4640000  13.5270000   0.4330000 -23.8860000
  14.2850000   1.5230000 -22.7510000  14.6580000   1.6370000 -24.4540000
