%VERSION  VERSION_STAMP = V0001.000  DATE = 09/04/25  04:59:56                  
%FLAG TITLE                                                                     
%FORMAT(20a4)                                                                   
Results/Site2/HOLO/ENA1/ENA1-Si                                                 
%FLAG POINTERS                                                                  
%FORMAT(10I8)                                                                   
     108       7      61      47     136      68     200     175       0       0
     606       1      47      68     175       9      21      40       7       0
       0       0       0       0       0       0       0       0     108       0
       0
%FLAG ATOM_NAME                                                                 
%FORMAT(20a4)                                                                   
O   O1  O2  O3  O4  O5  O6  O7  O8  N   N1  N2  C   C1  C2  C3  C4  C5  C6  C7  
C8  C9  C10 C11 C12 C13 C14 C15 C16 C17 C18 C19 C20 C21 C22 C23 C24 C25 C26 C27 
C28 C29 C30 C31 C32 C33 C34 H   H1  H2  H3  H4  H5  H6  H7  H8  H9  H10 H11 H12 
H13 H14 H15 H16 H17 H18 H19 H20 H21 H22 H23 H24 H25 H26 H27 H28 H29 H30 H31 H32 
H33 H34 H35 H36 H37 H38 H39 H40 H41 H42 H43 H44 H45 H46 H47 H48 H49 H50 H51 H52 
H53 H54 H55 H56 H57 H58 H59 H60 
%FLAG CHARGE                                                                    
%FORMAT(5E16.8)                                                                 
 -7.30532007E+00 -7.97954517E+00 -7.77909987E+00 -1.04796447E+01 -1.00404873E+01
 -1.05889785E+01 -9.25692840E+00 -1.03885332E+01 -9.85826430E+00 -8.41505814E+00
 -8.70661494E+00 -8.43328044E+00  1.12431591E+00  1.36120581E+00  1.55071773E+00
  1.14253821E+00  1.60538463E+00  1.87871913E+00  1.18098726E+01  1.14272043E+01
  1.23747639E+01  1.11174252E+01  1.16823165E+01  1.10992029E+01  1.18991619E+00
  1.28102769E+00  1.09880469E+00 -1.06964901E+00 -1.73294073E+00 -1.73294073E+00
 -1.17898281E+00 -1.87871913E+00 -1.50151752E+00 -1.75116303E+00 -1.17898281E+00
 -1.87871913E+00 -1.50151752E+00 -1.75116303E+00 -1.16076051E+00 -1.80582993E+00
 -1.80582993E+00 -1.54342881E+00 -1.71471843E+00 -1.71471843E+00 -1.08787131E+00
 -1.94249718E+00 -1.94249718E+00  2.17209816E+00  2.17209816E+00  1.61631801E+00
  2.32698771E+00  1.59809571E+00  1.57987341E+00  8.75271736E-01  8.75271736E-01
  8.75271736E-01  8.99580284E-01  8.99580284E-01  8.99580284E-01  1.00282784E+00
  1.00282784E+00  1.00282784E+00  1.03320441E+00  8.20604836E-01  8.20604836E-01
  8.20604836E-01  8.20604836E-01  8.20604836E-01  8.20604836E-01  1.15164936E+00
  8.23647960E-01  8.23647960E-01  8.23647960E-01  9.60315210E-01  9.60315210E-01
  6.47492986E-01  6.47492986E-01  6.47492986E-01  1.15164936E+00  8.23647960E-01
  8.23647960E-01  8.23647960E-01  9.60315210E-01  9.60315210E-01  6.47492986E-01
  6.47492986E-01  6.47492986E-01  1.05142671E+00  8.29715986E-01  8.29715986E-01
  8.29715986E-01  8.29715986E-01  8.29715986E-01  8.29715986E-01  1.79854101E+00
  7.47715636E-01  7.47715636E-01  7.47715636E-01  7.47715636E-01  7.47715636E-01
  7.47715636E-01  1.17898281E+00  8.66160586E-01  8.66160586E-01  8.66160586E-01
  8.66160586E-01  8.66160586E-01  8.66160586E-01
%FLAG ATOMIC_NUMBER                                                             
%FORMAT(10I8)                                                                   
       8       8       8       8       8       8       8       8       8       7
       7       7       6       6       6       6       6       6       6       6
       6       6       6       6       6       6       6       6       6       6
       6       6       6       6       6       6       6       6       6       6
       6       6       6       6       6       6       6       1       1       1
       1       1       1       1       1       1       1       1       1       1
       1       1       1       1       1       1       1       1       1       1
       1       1       1       1       1       1       1       1       1       1
       1       1       1       1       1       1       1       1       1       1
       1       1       1       1       1       1       1       1       1       1
       1       1       1       1       1       1       1       1
%FLAG MASS                                                                      
%FORMAT(5E16.8)                                                                 
  1.60000000E+01  1.60000000E+01  1.60000000E+01  1.60000000E+01  1.60000000E+01
  1.60000000E+01  1.60000000E+01  1.60000000E+01  1.60000000E+01  1.40100000E+01
  1.40100000E+01  1.40100000E+01  1.20100000E+01  1.20100000E+01  1.20100000E+01
  1.20100000E+01  1.20100000E+01  1.20100000E+01  1.20100000E+01  1.20100000E+01
  1.20100000E+01  1.20100000E+01  1.20100000E+01  1.20100000E+01  1.20100000E+01
  1.20100000E+01  1.20100000E+01  1.20100000E+01  1.20100000E+01  1.20100000E+01
  1.20100000E+01  1.20100000E+01  1.20100000E+01  1.20100000E+01  1.20100000E+01
  1.20100000E+01  1.20100000E+01  1.20100000E+01  1.20100000E+01  1.20100000E+01
  1.20100000E+01  1.20100000E+01  1.20100000E+01  1.20100000E+01  1.20100000E+01
  1.20100000E+01  1.20100000E+01  1.00800000E+00  1.00800000E+00  1.00800000E+00
  1.00800000E+00  1.00800000E+00  1.00800000E+00  1.00800000E+00  1.00800000E+00
  1.00800000E+00  1.00800000E+00  1.00800000E+00  1.00800000E+00  1.00800000E+00
  1.00800000E+00  1.00800000E+00  1.00800000E+00  1.00800000E+00  1.00800000E+00
  1.00800000E+00  1.00800000E+00  1.00800000E+00  1.00800000E+00  1.00800000E+00
  1.00800000E+00  1.00800000E+00  1.00800000E+00  1.00800000E+00  1.00800000E+00
  1.00800000E+00  1.00800000E+00  1.00800000E+00  1.00800000E+00  1.00800000E+00
  1.00800000E+00  1.00800000E+00  1.00800000E+00  1.00800000E+00  1.00800000E+00
  1.00800000E+00  1.00800000E+00  1.00800000E+00  1.00800000E+00  1.00800000E+00
  1.00800000E+00  1.00800000E+00  1.00800000E+00  1.00800000E+00  1.00800000E+00
  1.00800000E+00  1.00800000E+00  1.00800000E+00  1.00800000E+00  1.00800000E+00
  1.00800000E+00  1.00800000E+00  1.00800000E+00  1.00800000E+00  1.00800000E+00
  1.00800000E+00  1.00800000E+00  1.00800000E+00
%FLAG ATOM_TYPE_INDEX                                                           
%FORMAT(10I8)                                                                   
       1       1       1       2       2       2       2       2       2       3
       3       3       4       4       4       4       4       4       5       5
       5       5       5       5       4       4       4       4       4       4
       4       4       4       4       4       4       4       4       4       4
       4       4       4       4       4       4       4       6       6       6
       6       6       6       6       6       6       6       6       6       6
       6       6       7       7       7       7       7       7       7       7
       7       7       7       7       7       7       7       7       7       7
       7       7       7       7       7       7       7       7       7       7
       7       7       7       7       7       7       7       7       7       7
       7       7       7       7       7       7       7       7
%FLAG NUMBER_EXCLUDED_ATOMS                                                     
%FORMAT(10I8)                                                                   
      15      15      15       7       6       7       6       7       6      15
      15      15      19      19      14      19      14      14      13       9
      12       9      12       8       5       5       5      10       9       8
      13       9      11       6      13       9      11       6      10       9
       8      10       9       8      10       9       8       1       1       1
       1       1       1       2       1       1       2       1       1       2
       1       1       6       2       1       1       2       1       1       5
       2       1       1       4       3       2       1       1       5       2
       1       1       4       3       2       1       1       6       2       1
       1       2       1       1       6       2       1       1       2       1
       1       6       2       1       1       2       1       1
%FLAG NONBONDED_PARM_INDEX                                                      
%FORMAT(10I8)                                                                   
       1       2       4       7      11      16      22       2       3       5
       8      12      17      23       4       5       6       9      13      18
      24       7       8       9      10      14      19      25      11      12
      13      14      15      20      26      16      17      18      19      20
      21      27      22      23      24      25      26      27      28
%FLAG RESIDUE_LABEL                                                             
%FORMAT(20a4)                                                                   
UNL 
%FLAG RESIDUE_POINTER                                                           
%FORMAT(10I8)                                                                   
       1
%FLAG BOND_FORCE_CONSTANT                                                       
%FORMAT(5E16.8)                                                                 
  2.82270000E+02  3.51310000E+02  5.90600000E+02  3.17460000E+02  2.54460000E+02
  2.28890000E+02  2.34850000E+02  3.44220000E+02  3.45250000E+02
%FLAG BOND_EQUIL_VALUE                                                          
%FORMAT(5E16.8)                                                                 
  1.42730000E+00  1.36210000E+00  1.21900000E+00  1.39670000E+00  1.46430000E+00
  1.53540000E+00  1.52700000E+00  1.09690000E+00  1.09620000E+00
%FLAG ANGLE_FORCE_CONSTANT                                                      
%FORMAT(5E16.8)                                                                 
  7.74400000E+01  7.71000000E+01  5.62000000E+01  1.01260000E+02  7.79700000E+01
  8.66800000E+01  7.64500000E+01  6.51900000E+01  6.49500000E+01  6.53900000E+01
  4.80900000E+01  7.72400000E+01  7.62100000E+01  5.98700000E+01  4.32700000E+01
  8.94300000E+01  6.03600000E+01  4.37400000E+01  4.32800000E+01  3.56400000E+01
  3.58000000E+01
%FLAG ANGLE_EQUIL_VALUE                                                         
%FORMAT(5E16.8)                                                                 
  1.87832415E+00  1.90712209E+00  1.92579712E+00  2.15024656E+00  1.93382564E+00
  2.13925098E+00  2.14501057E+00  2.04482863E+00  1.96838317E+00  1.95372240E+00
  1.89822091E+00  2.07397564E+00  2.03767278E+00  1.96576518E+00  1.91427794E+00
  2.02144121E+00  1.94482122E+00  1.89141412E+00  1.91270715E+00  1.89455572E+00
  1.88024401E+00
%FLAG DIHEDRAL_FORCE_CONSTANT                                                   
%FORMAT(5E16.8)                                                                 
  1.55555556E-01  2.50000000E-01  0.00000000E+00  0.00000000E+00  1.07000000E+00
  2.10000000E-01  0.00000000E+00  2.50000000E+00  6.80000000E-01  2.00000000E-01
  4.40000000E-01  8.00000000E-01  8.00000000E-02  1.40000000E+00  2.70000000E+00
  7.10000000E-01  0.00000000E+00  1.00000000E-01  2.93000000E+00  1.41000000E+00
  5.00000000E-01  0.00000000E+00  5.20000000E-01  1.30000000E-01  1.89000000E+00
  3.29000000E+00  7.50000000E-01  2.26000000E+00  3.00000000E-02  6.50000000E-01
  6.40000000E-01  3.90000000E-01  3.83333333E-01  4.60000000E-01  4.00000000E-02
  8.00000000E-01  3.83000000E-01  1.20000000E-01  1.10000000E+00  1.05000000E+01
%FLAG DIHEDRAL_PERIODICITY                                                      
%FORMAT(5E16.8)                                                                 
  3.00000000E+00  1.00000000E+00  3.00000000E+00  1.00000000E+00  2.00000000E+00
  3.00000000E+00  2.00000000E+00  2.00000000E+00  1.00000000E+00  2.00000000E+00
  3.00000000E+00  1.00000000E+00  3.00000000E+00  1.00000000E+00  2.00000000E+00
  2.00000000E+00  4.00000000E+00  3.00000000E+00  1.00000000E+00  2.00000000E+00
  3.00000000E+00  2.00000000E+00  3.00000000E+00  3.00000000E+00  1.00000000E+00
  2.00000000E+00  3.00000000E+00  1.00000000E+00  3.00000000E+00  4.00000000E+00
  1.00000000E+00  2.00000000E+00  3.00000000E+00  1.00000000E+00  2.00000000E+00
  1.00000000E+00  3.00000000E+00  3.00000000E+00  2.00000000E+00  2.00000000E+00
%FLAG DIHEDRAL_PHASE                                                            
%FORMAT(5E16.8)                                                                 
  0.00000000E+00  0.00000000E+00  0.00000000E+00  3.14159400E+00  3.14159400E+00
  3.14159400E+00  3.14159400E+00  3.14159400E+00  0.00000000E+00  3.14159400E+00
  3.14159400E+00  0.00000000E+00  3.14159400E+00  3.14159400E+00  3.14159400E+00
  3.14159400E+00  3.14159400E+00  0.00000000E+00  0.00000000E+00  3.14159400E+00
  0.00000000E+00  0.00000000E+00  0.00000000E+00  0.00000000E+00  3.14159400E+00
  3.14159400E+00  0.00000000E+00  0.00000000E+00  3.14159400E+00  3.14159400E+00
  0.00000000E+00  3.14159400E+00  0.00000000E+00  3.14159400E+00  0.00000000E+00
  3.14159400E+00  0.00000000E+00  0.00000000E+00  3.14159400E+00  3.14159400E+00
%FLAG SCEE_SCALE_FACTOR                                                         
%FORMAT(5E16.8)                                                                 
  1.20000000E+00  1.20000000E+00  1.20000000E+00  1.20000000E+00  1.20000000E+00
  1.20000000E+00  1.20000000E+00  1.20000000E+00  1.20000000E+00  1.20000000E+00
  1.20000000E+00  1.20000000E+00  1.20000000E+00  1.20000000E+00  1.20000000E+00
  1.20000000E+00  1.20000000E+00  1.20000000E+00  1.20000000E+00  1.20000000E+00
  1.20000000E+00  1.20000000E+00  1.20000000E+00  1.20000000E+00  1.20000000E+00
  1.20000000E+00  1.20000000E+00  1.20000000E+00  1.20000000E+00  1.20000000E+00
  1.20000000E+00  1.20000000E+00  1.20000000E+00  1.20000000E+00  1.20000000E+00
  1.20000000E+00  1.20000000E+00  1.20000000E+00  0.00000000E+00  0.00000000E+00
%FLAG SCNB_SCALE_FACTOR                                                         
%FORMAT(5E16.8)                                                                 
  2.00000000E+00  2.00000000E+00  2.00000000E+00  2.00000000E+00  2.00000000E+00
  2.00000000E+00  2.00000000E+00  2.00000000E+00  2.00000000E+00  2.00000000E+00
  2.00000000E+00  2.00000000E+00  2.00000000E+00  2.00000000E+00  2.00000000E+00
  2.00000000E+00  2.00000000E+00  2.00000000E+00  2.00000000E+00  2.00000000E+00
  2.00000000E+00  2.00000000E+00  2.00000000E+00  2.00000000E+00  2.00000000E+00
  2.00000000E+00  2.00000000E+00  2.00000000E+00  2.00000000E+00  2.00000000E+00
  2.00000000E+00  2.00000000E+00  2.00000000E+00  2.00000000E+00  2.00000000E+00
  2.00000000E+00  2.00000000E+00  2.00000000E+00  0.00000000E+00  0.00000000E+00
%FLAG SOLTY                                                                     
%FORMAT(5E16.8)                                                                 
  0.00000000E+00  0.00000000E+00  0.00000000E+00  0.00000000E+00  0.00000000E+00
  0.00000000E+00  0.00000000E+00
%FLAG LENNARD_JONES_ACOEF                                                       
%FORMAT(5E16.8)                                                                 
  2.83662575E+05  3.27367585E+05  3.76435470E+05  4.46307018E+05  5.15491878E+05
  7.02078680E+05  5.42502534E+05  6.30925504E+05  8.52084164E+05  1.02073671E+06
  4.46121722E+05  5.17507491E+05  7.01106848E+05  8.43969952E+05  6.96551276E+05
  3.44374471E+04  3.86646725E+04  5.45183252E+04  6.97998263E+04  5.63013422E+04
  3.39005767E+03  5.02224902E+04  5.68021765E+04  7.93773615E+04  1.00235148E+05
  8.12662403E+04  5.22955465E+03  7.94617769E+03
%FLAG LENNARD_JONES_BCOEF                                                       
%FORMAT(5E16.8)                                                                 
  2.87011518E+02  3.67361018E+02  4.69350655E+02  4.41089616E+02  5.64804067E+02
  6.77820248E+02  4.38146883E+02  5.62969425E+02  6.72777963E+02  6.63431737E+02
  3.88758656E+02  4.98871431E+02  5.97113873E+02  5.90251928E+02  5.24668528E+02
  7.31636661E+01  9.23664132E+01  1.12788003E+02  1.14981426E+02  1.01040256E+02
  1.67944276E+01  8.83545880E+01  1.11953944E+02  1.36094315E+02  1.37787728E+02
  1.21392023E+02  2.08590256E+01  2.57122925E+01
%FLAG BONDS_INC_HYDROGEN                                                        
%FORMAT(10I8)                                                                   
      36     141       8      39     144       8      42     147       8      45
     150       8      48     153       8      51     156       8      72     159
       8      72     162       8      72     165       8      75     168       8
      75     171       8      75     174       8      78     177       8      78
     180       8      78     183       8      81     186       9      84     189
       9      84     192       9      84     195       9      87     198       9
      87     201       9      87     204       9      90     207       9      93
     210       9      93     213       9      93     216       9      96     219
       9      96     222       9      99     225       9      99     228       9
      99     231       9     102     234       9     105     237       9     105
     240       9     105     243       9     108     246       9     108     249
       9     111     252       9     111     255       9     111     258       9
     114     261       9     117     264       9     117     267       9     117
     270       9     120     273       9     120     276       9     120     279
       9     123     282       9     126     285       9     126     288       9
     126     291       9     129     294       9     129     297       9     129
     300       9     132     303       9     135     306       9     135     309
       9     135     312       9     138     315       9     138     318       9
     138     321       9
%FLAG BONDS_WITHOUT_HYDROGEN                                                    
%FORMAT(10I8)                                                                   
       0      42       1       0      57       2       3      63       2       3
      51       1       6      48       1       6      69       2       9      54
       3      12      57       3      15      60       3      18      63       3
      21      66       3      24      69       3      27      54       4      27
      36       5      27      72       5      30      39       5      30      60
       4      30      75       5      33      45       5      33      78       5
      33      66       4      36     102       6      36      63       7      39
      57       7      39      90       6      42      81       6      42      54
       7      45     132       6      45      69       7      48      60       7
      48     114       6      51      66       7      51     123       6      81
      84       6      81      87       6      90      96       6      90      93
       6      96      99       6     102     108       6     102     105       6
     108     111       6     114     117       6     114     120       6     123
     126       6     123     129       6     132     135       6     132     138
       6
%FLAG ANGLES_INC_HYDROGEN                                                       
%FORMAT(10I8)                                                                   
       0      42     147       3       3      51     156       3       6      48
     153       3      27      36     141      11      27      72     159      11
      27      72     162      11      27      72     165      11      30      39
     144      11      30      75     168      11      30      75     171      11
      30      75     174      11      33      45     150      11      33      78
     177      11      33      78     180      11      33      78     183      11
      36     102     234      15      39      90     207      15      42      81
     186      15      45     132     303      15      48     114     261      15
      51     123     282      15      54      42     147      18      57      39
     144      18      60      48     153      18      63      36     141      18
      66      51     156      18      69      45     150      18      81      42
     147      19      81      84     189      15      81      84     192      15
      81      84     195      15      81      87     198      15      81      87
     201      15      81      87     204      15      84      81     186      15
      87      81     186      15      90      39     144      19      90      96
     219      15      90      96     222      15      90      93     210      15
      90      93     213      15      90      93     216      15      93      90
     207      15      96      90     207      15      96      99     225      15
      96      99     228      15      96      99     231      15      99      96
     219      15      99      96     222      15     102      36     141      19
     102     108     246      15     102     108     249      15     102     105
     237      15     102     105     240      15     102     105     243      15
     105     102     234      15     108     102     234      15     108     111
     252      15     108     111     255      15     108     111     258      15
     111     108     246      15     111     108     249      15     114      48
     153      19     114     117     264      15     114     117     267      15
     114     117     270      15     114     120     273      15     114     120
     276      15     114     120     279      15     117     114     261      15
     120     114     261      15     123      51     156      19     123     126
     285      15     123     126     288      15     123     126     291      15
     123     129     294      15     123     129     297      15     123     129
     300      15     126     123     282      15     129     123     282      15
     132      45     150      19     132     135     306      15     132     135
     309      15     132     135     312      15     132     138     315      15
     132     138     318      15     132     138     321      15     135     132
     303      15     138     132     303      15     159      72     162      20
     159      72     165      20     162      72     165      20     168      75
     171      20     168      75     174      20     171      75     174      20
     177      78     180      20     177      78     183      20     180      78
     183      20     189      84     192      21     189      84     195      21
     192      84     195      21     198      87     201      21     198      87
     204      21     201      87     204      21     210      93     213      21
     210      93     216      21     213      93     216      21     219      96
     222      21     225      99     228      21     225      99     231      21
     228      99     231      21     237     105     240      21     237     105
     243      21     240     105     243      21     246     108     249      21
     252     111     255      21     252     111     258      21     255     111
     258      21     264     117     267      21     264     117     270      21
     267     117     270      21     273     120     276      21     273     120
     279      21     276     120     279      21     285     126     288      21
     285     126     291      21     288     126     291      21     294     129
     297      21     294     129     300      21     297     129     300      21
     306     135     309      21     306     135     312      21     309     135
     312      21     315     138     318      21     315     138     321      21
     318     138     321      21
%FLAG ANGLES_WITHOUT_HYDROGEN                                                   
%FORMAT(10I8)                                                                   
       0      42      81       1       0      42      54       2       0      57
      12       4       0      57      39       5       3      63      18       4
       3      63      36       5       3      51      66       2       3      51
     123       1       6      48      60       2       6      48     114       1
       6      69      24       4       6      69      45       5       9      54
      27       6       9      54      42       7      12      57      39       7
      15      60      30       6      15      60      48       7      18      63
      36       7      21      66      33       6      21      66      51       7
      24      69      45       7      27      54      42       8      27      36
     102       9      27      36      63      10      30      39      57      10
      30      39      90       9      30      60      48       8      33      45
     132       9      33      45      69      10      33      66      51       8
      36      27      54      12      36      27      72      13      36     102
     108      14      36     102     105      14      39      30      60      12
      39      30      75      13      39      90      96      14      39      90
      93      14      42       0      57      16      42      81      84      14
      42      81      87      14      45      33      78      13      45      33
      66      12      45     132     135      14      45     132     138      14
      48       6      69      16      48     114     117      14      48     114
     120      14      51       3      63      16      51     123     126      14
      51     123     129      14      54      27      72      12      54      42
      81      17      57      39      90      17      60      30      75      12
      60      48     114      17      63      36     102      17      66      33
      78      12      66      51     123      17      69      45     132      17
      84      81      87      14      90      96      99      14      93      90
      96      14     102     108     111      14     105     102     108      14
     117     114     120      14     126     123     129      14     135     132
     138      14
%FLAG DIHEDRALS_INC_HYDROGEN                                                    
%FORMAT(10I8)                                                                   
       0      42      81     186       2       0      42     -81     186       3
       0      57      39     144       7       3      63      36     141       7
       3      51     123     282       2       3      51    -123     282       3
       6      48     114     261       2       6      48    -114     261       3
       6      69      45     150       7       9      54      42     147      12
       9      54     -42     147      13      12      57      39     144      12
      12      57     -39     144      13      15      60      48     153      12
      15      60     -48     153      13      18      63      36     141      12
      18      63     -36     141      13      21      66      51     156      12
      21      66     -51     156      13      24      69      45     150      12
      24      69     -45     150      13      27      54      42     147       7
      27      36     102     234       1      30      39      90     207       1
      30      60      48     153       7      33      45     132     303       1
      33      66      51     156       7      36      27      72     159      22
      36      27      72     162      22      36      27      72     165      22
      36     102     108     246      24      36     102     108     249      24
      36     102     105     237      24      36     102     105     240      24
      36     102     105     243      24      39      30      75     168      22
      39      30      75     171      22      39      30      75     174      22
      39      90      96     219      24      39      90      96     222      24
      39      90      93     210      24      39      90      93     213      24
      39      90      93     216      24      42      81      84     189      24
      42      81      84     192      24      42      81      84     195      24
      42      81      87     198      24      42      81      87     201      24
      42      81      87     204      24      45      33      78     177      22
      45      33      78     180      22      45      33      78     183      22
      45     132     135     306      24      45     132     135     309      24
      45     132     135     312      24      45     132     138     315      24
      45     132     138     318      24      45     132     138     321      24
      48     114     117     264      24      48     114     117     267      24
      48     114     117     270      24      48     114     120     273      24
      48     114     120     276      24      48     114     120     279      24
      51     123     126     285      24      51     123     126     288      24
      51     123     126     291      24      51     123     129     294      24
      51     123     129     297      24      51     123     129     300      24
      54      27      36     141       7      54      27      72     159       7
      54      27      72     162       7      54      27      72     165       7
      54      42      81     186       1      57       0      42     147      33
      57      39      90     207       1      60      30      39     144       7
      60      30      75     168       7      60      30      75     171       7
      60      30      75     174       7      60      48     114     261       1
      63       3      51     156      33      63      36     102     234       1
      66      33      45     150       7      66      33      78     177       7
      66      33      78     180       7      66      33      78     183       7
      66      51     123     282       1      69       6      48     153      33
      69      45     132     303       1      72      27      36     141      22
      75      30      39     144      22      78      33      45     150      22
      84      81      42     147       1      84      81      87     198      24
      84      81      87     201      24      84      81      87     204      24
      87      81      42     147       1      87      81      84     189      24
      87      81      84     192      24      87      81      84     195      24
      90      96      99     225      24      90      96      99     228      24
      90      96      99     231      24      93      90      39     144       1
      93      90      96     219      24      93      90      96     222      24
      96      90      39     144       1      96      90      93     210      24
      96      90      93     213      24      96      90      93     216      24
      99      96      90     207      24     102     108     111     252      24
     102     108     111     255      24     102     108     111     258      24
     105     102      36     141       1     105     102     108     246      24
     105     102     108     249      24     108     102      36     141       1
     108     102     105     237      24     108     102     105     240      24
     108     102     105     243      24     111     108     102     234      24
     117     114      48     153       1     117     114     120     273      24
     117     114     120     276      24     117     114     120     279      24
     120     114      48     153       1     120     114     117     264      24
     120     114     117     267      24     120     114     117     270      24
     126     123      51     156       1     126     123     129     294      24
     126     123     129     297      24     126     123     129     300      24
     129     123      51     156       1     129     123     126     285      24
     129     123     126     288      24     129     123     126     291      24
     135     132      45     150       1     135     132     138     315      24
     135     132     138     318      24     135     132     138     321      24
     138     132      45     150       1     138     132     135     306      24
     138     132     135     309      24     138     132     135     312      24
     141      36     102     234       1     144      39      90     207       1
     147      42      81     186       1     150      45     132     303       1
     153      48     114     261       1     156      51     123     282       1
     186      81      84     189      38     186      81      84     192      38
     186      81      84     195      38     186      81      87     198      38
     186      81      87     201      38     186      81      87     204      38
     207      90      96     219      38     207      90      96     222      38
     207      90      93     210      38     207      90      93     213      38
     207      90      93     216      38     219      96      99     225      38
     219      96      99     228      38     219      96      99     231      38
     222      96      99     225      38     222      96      99     228      38
     222      96      99     231      38     234     102     108     246      38
     234     102     108     249      38     234     102     105     237      38
     234     102     105     240      38     234     102     105     243      38
     246     108     111     252      38     246     108     111     255      38
     246     108     111     258      38     249     108     111     252      38
     249     108     111     255      38     249     108     111     258      38
     261     114     117     264      38     261     114     117     267      38
     261     114     117     270      38     261     114     120     273      38
     261     114     120     276      38     261     114     120     279      38
     282     123     126     285      38     282     123     126     288      38
     282     123     126     291      38     282     123     129     294      38
     282     123     129     297      38     282     123     129     300      38
     303     132     135     306      38     303     132     135     309      38
     303     132     135     312      38     303     132     138     315      38
     303     132     138     318      38     303     132     138     321      38
%FLAG DIHEDRALS_WITHOUT_HYDROGEN                                                
%FORMAT(10I8)                                                                   
       0      42      81      84       1       0      42      81      87       1
       0      42      54       9       4       0      42     -54       9       5
       0      42     -54       9       6       0      42      54      27       7
       0      57      39      30       7       0      57      39      90       7
       3      63      36      27       7       3      63      36     102       7
       3      51      66      21       4       3      51     -66      21       5
       3      51     -66      21       6       3      51      66      33       7
       3      51     123     126       1       3      51     123     129       1
       6      48      60      15       4       6      48     -60      15       5
       6      48     -60      15       6       6      48      60      30       7
       6      48     114     117       1       6      48     114     120       1
       6      69      45      33       7       6      69      45     132       7
       9      54      27      36       8       9      54      27      72       8
       9      54      42      81       9       9      54     -42      81      10
       9      54     -42      81      11      42       0      57      12      14
      42       0     -57      12      15      12      57      39      30       7
      12      57      39      90       9      12      57     -39      90      10
      12      57     -39      90      11      15      60      30      39       8
      15      60      30      75       8      15      60      48     114       9
      15      60     -48     114      10      15      60     -48     114      11
      18      63       3      51      14      18      63      -3      51      15
      18      63      36      27       7      18      63      36     102       9
      18      63     -36     102      10      18      63     -36     102      11
      21      66      33      45       8      21      66      33      78       8
      21      66      51     123       9      21      66     -51     123      10
      21      66     -51     123      11      24      69       6      48      14
      24      69      -6      48      15      24      69      45      33       7
      24      69      45     132       9      24      69     -45     132      10
      24      69     -45     132      11      27      54      42      81      16
      27      54     -42      81      17      27      36     102     108      18
      27      36     102     105      18      30      39      90      96      18
      30      39      90      93      18      30      60      48     114      16
      30      60     -48     114      17      33      45     132     135      18
      33      45     132     138      18      33      66      51     123      16
      33      66     -51     123      17      36      27      54      42      19
      36      27     -54      42      20      36      27     -54      42      21
      36     102     108     111      23      36      63       3      51      25
      36      63      -3      51      26      36      63      -3      51      27
      39      30      60      48      19      39      30     -60      48      20
      39      30     -60      48      21      42       0      57      39      25
      42       0     -57      39      26      42       0     -57      39      27
      39      90      96      99      23      42      54      27      72      19
      42      54     -27      72      20      42      54     -27      72      21
      45      33      66      51      19      45      33     -66      51      20
      45      33     -66      51      21      45      69       6      48      25
      45      69      -6      48      26      45      69      -6      48      27
      48      60      30      75      19      48      60     -30      75      20
      48      60     -30      75      21      51      66      33      78      19
      51      66     -33      78      20      51      66     -33      78      21
      54      27      36     102      28      54      27     -36     102      29
      54      27     -36     102      30      54      27      36      63      31
      54      27     -36      63      32      57       0      42      54      33
      54      42      81      84      34      54      42     -81      84      35
      54      42     -81      84       3      54      42      81      87      34
      54      42     -81      87      35      54      42     -81      87       3
      57       0      42      81      36      57       0     -42      81      37
      57      39      30      60      31      57      39     -30      60      32
      57      39      30      75      22      57      39      90      96      34
      57      39     -90      96      35      57      39     -90      96       3
      57      39      90      93      34      57      39     -90      93      35
      57      39     -90      93       3      60      30      39      90      28
      60      30     -39      90      29      60      30     -39      90      30
      60      48       6      69      33      60      48     114     117      34
      60      48    -114     117      35      60      48    -114     117       3
      60      48     114     120      34      60      48    -114     120      35
      60      48    -114     120       3      63       3      51      66      33
      63       3      51     123      36      63       3     -51     123      37
      63      36      27      72      22      63      36     102     108      34
      63      36    -102     108      35      63      36    -102     108       3
      63      36     102     105      34      63      36    -102     105      35
      63      36    -102     105       3      66      33      45     132      28
      66      33     -45     132      29      66      33     -45     132      30
      66      33      45      69      31      66      33     -45      69      32
      66      51     123     126      34      66      51    -123     126      35
      66      51    -123     126       3      66      51     123     129      34
      66      51    -123     129      35      66      51    -123     129       3
      69       6      48     114      36      69       6     -48     114      37
      69      45      33      78      22      69      45     132     135      34
      69      45    -132     135      35      69      45    -132     135       3
      69      45     132     138      34      69      45    -132     138      35
      69      45    -132     138       3      72      27      36     102      22
      75      30      39      90      22      78      33      45     132      22
      93      90      96      99      23     105     102     108     111      23
      54      36     -27     -72      39      60      39     -30     -75      39
      66      45     -33     -78      39      42      27     -54      -9      40
       0      57     -12     -39      39      48      30     -60     -15      40
      36      18     -63      -3      39      51      33     -66     -21      40
      45      24     -69      -6      39
%FLAG EXCLUDED_ATOMS_LIST                                                       
%FORMAT(10I8)                                                                   
       4       5      10      11      14      15      19      20      28      29
      30      31      49      50      63       7       8      10      12      13
      18      22      23      35      42      43      44      48      53      95
       6       9      11      12      16      17      21      24      39      40
      41      45      51      52      88      10      13      15      19      25
      28      50      11      14      15      20      31      49      11      14
      17      21      26      39      52      10      13      18      22      35
      48      12      16      18      23      27      42      53      12      16
      17      24      45      51      13      15      19      22      25      28
      35      36      37      48      50      54      55      56      79      14
      17      20      21      26      31      32      33      39      49      52
      57      58      59      70      16      18      23      24      27      42
      45      46      47      51      53      60      61      62     102      15
      18      19      22      25      35      36      37      38      48      54
      55      56      79      80      81      82      83      84      15      17
      20      21      26      31      32      33      34      49      57      58
      59      70      71      72      73      74      75      19      20      25
      28      29      30      50      63      64      65      66      67      68
      69      17      18      23      24      27      45      46      47      51
      60      61      62     102     103     104     105     106     107     108
      21      24      26      39      40      41      52      88      89      90
      91      92      93      94      22      23      27      42      43      44
      53      95      96      97      98      99     100     101      20      22
      25      28      29      30      35      48      50      54      55      56
      63      21      26      28      31      32      33      49      50      70
      24      26      31      39      40      41      49      52      57      58
      59      88      23      25      35      36      37      42      48      53
      79      24      27      42      43      44      45      51      53      60
      61      62      95      27      39      45      46      47      51      52
     102      35      48      54      55      56      31      49      57      58
      59      45      51      60      61      62      29      30      50      63
      64      65      66      67      68      69      30      50      63      64
      65      66      67      68      69      50      63      64      65      66
      67      68      69      32      33      34      49      70      71      72
      73      74      75      76      77      78      33      34      49      70
      71      72      73      74      75      34      49      70      71      72
      73      74      75      76      77      78      70      74      75      76
      77      78      36      37      38      48      79      80      81      82
      83      84      85      86      87      37      38      48      79      80
      81      82      83      84      38      48      79      80      81      82
      83      84      85      86      87      79      83      84      85      86
      87      40      41      52      88      89      90      91      92      93
      94      41      52      88      89      90      91      92      93      94
      52      88      89      90      91      92      93      94      43      44
      53      95      96      97      98      99     100     101      44      53
      95      96      97      98      99     100     101      53      95      96
      97      98      99     100     101      46      47      51     102     103
     104     105     106     107     108      47      51     102     103     104
     105     106     107     108      51     102     103     104     105     106
     107     108      79      70      63     102      88      95      55      56
      56       0      58      59      59       0      61      62      62       0
      64      65      66      67      68      69      65      66      66       0
      68      69      69       0      71      72      73      74      75      72
      73      73       0      75      76      77      78      76      77      78
      77      78      78       0      80      81      82      83      84      81
      82      82       0      84      85      86      87      85      86      87
      86      87      87       0      89      90      91      92      93      94
      90      91      91       0      93      94      94       0      96      97
      98      99     100     101      97      98      98       0     100     101
     101       0     103     104     105     106     107     108     104     105
     105       0     107     108     108       0
%FLAG HBOND_ACOEF                                                               
%FORMAT(5E16.8)                                                                 

%FLAG HBOND_BCOEF                                                               
%FORMAT(5E16.8)                                                                 

%FLAG HBCUT                                                                     
%FORMAT(5E16.8)                                                                 

%FLAG AMBER_ATOM_TYPE                                                           
%FORMAT(20a4)                                                                   
os  os  os  o   o   o   o   o   o   n   n   n   c3  c3  c3  c3  c3  c3  c   c   
c   c   c   c   c3  c3  c3  c3  c3  c3  c3  c3  c3  c3  c3  c3  c3  c3  c3  c3  
c3  c3  c3  c3  c3  c3  c3  h1  h1  h1  h1  h1  h1  h1  h1  h1  h1  h1  h1  h1  
h1  h1  hc  hc  hc  hc  hc  hc  hc  hc  hc  hc  hc  hc  hc  hc  hc  hc  hc  hc  
hc  hc  hc  hc  hc  hc  hc  hc  hc  hc  hc  hc  hc  hc  hc  hc  hc  hc  hc  hc  
hc  hc  hc  hc  hc  hc  hc  hc  
%FLAG TREE_CHAIN_CLASSIFICATION                                                 
%FORMAT(20a4)                                                                   
BLA BLA BLA BLA BLA BLA BLA BLA BLA BLA BLA BLA BLA BLA BLA BLA BLA BLA BLA BLA 
BLA BLA BLA BLA BLA BLA BLA BLA BLA BLA BLA BLA BLA BLA BLA BLA BLA BLA BLA BLA 
BLA BLA BLA BLA BLA BLA BLA BLA BLA BLA BLA BLA BLA BLA BLA BLA BLA BLA BLA BLA 
BLA BLA BLA BLA BLA BLA BLA BLA BLA BLA BLA BLA BLA BLA BLA BLA BLA BLA BLA BLA 
BLA BLA BLA BLA BLA BLA BLA BLA BLA BLA BLA BLA BLA BLA BLA BLA BLA BLA BLA BLA 
BLA BLA BLA BLA BLA BLA BLA BLA 
%FLAG JOIN_ARRAY                                                                
%FORMAT(10I8)                                                                   
       0       0       0       0       0       0       0       0       0       0
       0       0       0       0       0       0       0       0       0       0
       0       0       0       0       0       0       0       0       0       0
       0       0       0       0       0       0       0       0       0       0
       0       0       0       0       0       0       0       0       0       0
       0       0       0       0       0       0       0       0       0       0
       0       0       0       0       0       0       0       0       0       0
       0       0       0       0       0       0       0       0       0       0
       0       0       0       0       0       0       0       0       0       0
       0       0       0       0       0       0       0       0       0       0
       0       0       0       0       0       0       0       0
%FLAG IROTAT                                                                    
%FORMAT(10I8)                                                                   
       0       0       0       0       0       0       0       0       0       0
       0       0       0       0       0       0       0       0       0       0
       0       0       0       0       0       0       0       0       0       0
       0       0       0       0       0       0       0       0       0       0
       0       0       0       0       0       0       0       0       0       0
       0       0       0       0       0       0       0       0       0       0
       0       0       0       0       0       0       0       0       0       0
       0       0       0       0       0       0       0       0       0       0
       0       0       0       0       0       0       0       0       0       0
       0       0       0       0       0       0       0       0       0       0
       0       0       0       0       0       0       0       0
%FLAG RADIUS_SET                                                                
%FORMAT(1a80)                                                                   
modified Bondi radii (mbondi)                                                   
%FLAG RADII                                                                     
%FORMAT(5E16.8)                                                                 
  1.50000000E+00  1.50000000E+00  1.50000000E+00  1.50000000E+00  1.50000000E+00
  1.50000000E+00  1.50000000E+00  1.50000000E+00  1.50000000E+00  1.55000000E+00
  1.55000000E+00  1.55000000E+00  1.70000000E+00  1.70000000E+00  1.70000000E+00
  1.70000000E+00  1.70000000E+00  1.70000000E+00  1.70000000E+00  1.70000000E+00
  1.70000000E+00  1.70000000E+00  1.70000000E+00  1.70000000E+00  1.70000000E+00
  1.70000000E+00  1.70000000E+00  1.70000000E+00  1.70000000E+00  1.70000000E+00
  1.70000000E+00  1.70000000E+00  1.70000000E+00  1.70000000E+00  1.70000000E+00
  1.70000000E+00  1.70000000E+00  1.70000000E+00  1.70000000E+00  1.70000000E+00
  1.70000000E+00  1.70000000E+00  1.70000000E+00  1.70000000E+00  1.70000000E+00
  1.70000000E+00  1.70000000E+00  1.30000000E+00  1.30000000E+00  1.30000000E+00
  1.30000000E+00  1.30000000E+00  1.30000000E+00  1.30000000E+00  1.30000000E+00
  1.30000000E+00  1.30000000E+00  1.30000000E+00  1.30000000E+00  1.30000000E+00
  1.30000000E+00  1.30000000E+00  1.30000000E+00  1.30000000E+00  1.30000000E+00
  1.30000000E+00  1.30000000E+00  1.30000000E+00  1.30000000E+00  1.30000000E+00
  1.30000000E+00  1.30000000E+00  1.30000000E+00  1.30000000E+00  1.30000000E+00
  1.30000000E+00  1.30000000E+00  1.30000000E+00  1.30000000E+00  1.30000000E+00
  1.30000000E+00  1.30000000E+00  1.30000000E+00  1.30000000E+00  1.30000000E+00
  1.30000000E+00  1.30000000E+00  1.30000000E+00  1.30000000E+00  1.30000000E+00
  1.30000000E+00  1.30000000E+00  1.30000000E+00  1.30000000E+00  1.30000000E+00
  1.30000000E+00  1.30000000E+00  1.30000000E+00  1.30000000E+00  1.30000000E+00
  1.30000000E+00  1.30000000E+00  1.30000000E+00  1.30000000E+00  1.30000000E+00
  1.30000000E+00  1.30000000E+00  1.30000000E+00
%FLAG SCREEN                                                                    
%FORMAT(5E16.8)                                                                 
  8.50000000E-01  8.50000000E-01  8.50000000E-01  8.50000000E-01  8.50000000E-01
  8.50000000E-01  8.50000000E-01  8.50000000E-01  8.50000000E-01  7.90000000E-01
  7.90000000E-01  7.90000000E-01  7.20000000E-01  7.20000000E-01  7.20000000E-01
  7.20000000E-01  7.20000000E-01  7.20000000E-01  7.20000000E-01  7.20000000E-01
  7.20000000E-01  7.20000000E-01  7.20000000E-01  7.20000000E-01  7.20000000E-01
  7.20000000E-01  7.20000000E-01  7.20000000E-01  7.20000000E-01  7.20000000E-01
  7.20000000E-01  7.20000000E-01  7.20000000E-01  7.20000000E-01  7.20000000E-01
  7.20000000E-01  7.20000000E-01  7.20000000E-01  7.20000000E-01  7.20000000E-01
  7.20000000E-01  7.20000000E-01  7.20000000E-01  7.20000000E-01  7.20000000E-01
  7.20000000E-01  7.20000000E-01  8.50000000E-01  8.50000000E-01  8.50000000E-01
  8.50000000E-01  8.50000000E-01  8.50000000E-01  8.50000000E-01  8.50000000E-01
  8.50000000E-01  8.50000000E-01  8.50000000E-01  8.50000000E-01  8.50000000E-01
  8.50000000E-01  8.50000000E-01  8.50000000E-01  8.50000000E-01  8.50000000E-01
  8.50000000E-01  8.50000000E-01  8.50000000E-01  8.50000000E-01  8.50000000E-01
  8.50000000E-01  8.50000000E-01  8.50000000E-01  8.50000000E-01  8.50000000E-01
  8.50000000E-01  8.50000000E-01  8.50000000E-01  8.50000000E-01  8.50000000E-01
  8.50000000E-01  8.50000000E-01  8.50000000E-01  8.50000000E-01  8.50000000E-01
  8.50000000E-01  8.50000000E-01  8.50000000E-01  8.50000000E-01  8.50000000E-01
  8.50000000E-01  8.50000000E-01  8.50000000E-01  8.50000000E-01  8.50000000E-01
  8.50000000E-01  8.50000000E-01  8.50000000E-01  8.50000000E-01  8.50000000E-01
  8.50000000E-01  8.50000000E-01  8.50000000E-01  8.50000000E-01  8.50000000E-01
  8.50000000E-01  8.50000000E-01  8.50000000E-01
%FLAG IPOL                                                                      
%FORMAT(1I8)                                                                    
       0
