
  108  0.0000000e+00
  66.0400000  53.8000000  56.2500000  70.4600000  52.4200000  57.2300000
  68.3400000  53.6300000  60.9100000  67.1200000  51.6200000  57.4300000
  67.9500000  55.0200000  55.9500000  65.3800000  54.6700000  60.1000000
  71.6600000  50.4800000  57.4400000  73.7000000  53.0200000  58.7900000
  70.0900000  54.3700000  61.9700000  68.5800000  51.2600000  55.6400000
  67.1300000  55.5900000  58.9400000  71.7800000  52.8600000  60.1200000
  69.5300000  50.3800000  56.3600000  66.2600000  55.6000000  57.6300000
  66.4100000  52.7000000  55.4000000  70.3700000  52.4900000  60.2900000
  67.5900000  54.7300000  61.3200000  71.5500000  53.2600000  57.5600000
  67.4000000  51.8200000  56.2400000  66.9300000  54.7700000  56.5700000
  66.5900000  54.9700000  60.0900000  70.6900000  51.0900000  57.0600000
  72.4700000  52.9600000  58.8400000  69.6100000  53.5300000  61.2400000
  68.9700000  51.7700000  54.3100000  68.5800000  55.8400000  58.7600000
  72.7200000  52.9400000  61.3200000  65.0900000  51.8000000  55.0600000
  63.9100000  52.7400000  54.7600000  65.3300000  50.8700000  53.7700000
  65.8600000  57.0200000  57.0200000  64.6800000  56.9200000  56.0100000
  65.7200000  58.1100000  58.1600000  64.7800000  57.9400000  59.3600000
  69.9300000  49.0800000  55.5600000  68.7400000  48.4900000  54.7900000
  71.1500000  49.1700000  54.5100000  71.8600000  47.7800000  54.2300000
  66.8100000  54.3100000  62.5900000  65.9300000  55.4700000  63.1300000
  67.7200000  53.9500000  63.8100000  72.2900000  53.7500000  56.1800000
  72.8000000  52.6600000  55.3000000  71.3400000  54.7600000  55.3600000
  70.0800000  50.9800000  60.7200000  68.5700000  50.7100000  60.6400000
  70.8600000  50.4900000  62.0100000  68.9900000  49.9600000  57.2200000
  65.3100000  55.1300000  57.9400000  66.7800000  53.1300000  54.4700000
  69.8400000  52.6800000  59.3600000  68.1700000  55.6500000  61.4500000
  71.0600000  54.1600000  57.9600000  68.7700000  52.8500000  54.2600000
  68.3600000  51.4800000  53.4500000  69.9900000  51.5100000  54.0200000
  68.5800000  56.5900000  57.9600000  69.1400000  54.9500000  58.4300000
  69.0700000  56.1800000  59.6800000  73.3400000  53.8400000  61.2900000
  73.3000000  52.0200000  61.2700000  72.1500000  52.9500000  62.2600000
  64.7000000  51.2400000  55.9200000  64.2900000  53.6800000  54.3500000
  63.4000000  52.9700000  55.7000000  63.1700000  52.2300000  54.1300000
  65.9200000  49.9900000  54.0400000  65.9400000  51.3300000  52.9900000
  64.3800000  50.4800000  53.3800000  66.6400000  57.3100000  56.3100000
  63.8600000  56.3600000  56.4700000  65.0200000  56.5400000  55.0400000
  64.2000000  57.8900000  55.8400000  65.5100000  59.0600000  57.6600000
  66.6900000  58.3300000  58.6100000  64.2300000  56.9900000  59.3500000
  64.0400000  58.7400000  59.2600000  65.3400000  58.0800000  60.2900000
  70.1900000  48.3800000  56.3500000  68.5100000  48.9400000  53.8100000
  67.8600000  48.7300000  55.4000000  68.8300000  47.4100000  54.6100000
  71.9500000  49.7700000  54.9700000  70.8500000  49.5300000  53.5200000
  72.3400000  47.4300000  55.1500000  72.6400000  47.9800000  53.4900000
  71.2800000  46.9500000  53.8200000  66.1800000  53.4700000  62.2800000
  65.1700000  55.7000000  62.3700000  66.5300000  56.3500000  63.4000000
  65.3400000  55.1200000  63.9800000  67.1800000  53.7000000  64.7300000
  68.3900000  54.8100000  63.9600000  68.3600000  53.0700000  63.6700000
  73.1700000  54.3200000  56.5200000  71.9300000  52.1200000  54.9100000
  73.3900000  51.9800000  55.9200000  73.4100000  53.0400000  54.4700000
  71.9600000  55.2700000  54.6300000  70.8900000  55.4000000  56.1300000
  70.4800000  54.2000000  54.9600000  70.5800000  50.3600000  59.9700000
  68.3500000  49.6400000  60.6100000  68.2500000  51.1000000  59.6600000
  67.9300000  51.1200000  61.4200000  70.3600000  49.6000000  62.4100000
  70.7900000  51.2800000  62.7700000  71.9200000  50.2600000  61.8500000
