Cpptraj Generated Restart                                                       
  108  3.0000000E+04
  63.6100054  52.9100037  56.0000038  68.6500025  53.5900021  56.4100027
  66.4300013  53.9200020  59.5700026  65.7000017  51.1700010  57.2200012
  64.1800022  54.3600035  54.3400049  63.0800009  54.5000029  58.9800024
  70.4100037  52.4400043  55.6800032  71.7600012  54.6500015  57.5800037
  68.0000019  55.5600023  59.6300030  66.8400049  51.6400003  55.2700043
  64.3400049  55.3000021  57.3900032  70.2400017  53.8100004  59.0700006
  68.2100010  51.2600040  55.9000015  63.2100010  55.2100039  56.4300013
  64.2400026  51.8600035  55.3400040  68.8200045  53.2700014  59.4200039
  65.3400040  54.8700047  59.8200035  69.3900013  54.7100019  56.8600035
  65.5900049  51.4700031  56.0100031  63.5600042  54.1300011  55.3500032
  64.2100048  54.7800016  58.7200022  69.2300034  52.4500036  55.9100008
  70.6300020  54.3200016  57.8200006  67.7000046  54.3900013  59.6300030
  66.8900013  52.1600008  53.9100027  65.6400013  55.8000040  56.8200016
  71.2300014  53.8700008  60.2300024  63.2100010  50.7000017  55.2800035
  63.0300045  50.0700045  56.6900015  61.8400049  51.2400007  54.7600031
  62.7800035  56.5900040  55.7900047  61.6900015  56.4600039  54.7500038
  62.3900032  57.6200008  56.8600035  61.1700010  57.3700047  57.7400017
  68.8600016  49.9400043  55.4100037  67.9200029  48.7600040  55.6900024
  69.4100046  49.8600006  53.9700031  70.5200052  48.8300037  53.7800026
  64.8500013  54.6800041  61.2700033  65.8000040  55.3400040  62.2800016
  64.6200037  53.1600046  61.7000008  69.9100018  55.5700016  55.6100035
  68.9000034  55.6500006  54.4000006  70.3500032  57.0100021  56.0200024
  68.8000011  52.1200037  60.5100012  67.8400040  50.9800005  60.1900005
  68.6100054  52.6600027  61.9300032  68.0100012  51.0700035  56.9600010
  62.3100042  54.8200035  56.9000006  64.4200039  52.1700048  54.3100023
  68.3500051  52.7300024  58.5800028  65.6500053  55.9200048  59.7700024
  68.7800026  55.3800011  57.4600029  66.7400026  53.2400036  53.9400005
  66.0600042  51.7500019  53.3300018  67.8100014  51.9100046  53.3700037
  66.4000034  55.7200003  57.6000023  65.4700041  56.8000031  56.4200020
  65.9500027  55.1100016  56.0300016  70.9500027  54.5500040  61.0500050
  72.2100019  54.2200041  59.9000025  71.4000034  52.9000044  60.7000017
  63.5800028  49.9800014  54.5400047  62.0800018  49.5200014  56.8100023
  62.9900026  50.8200026  57.4900007  63.8700008  49.3900013  56.8700027
  62.0200014  51.6300011  53.7600040  61.4300013  51.9800043  55.4700041
  61.0400009  50.5100012  54.6600008  63.6500025  57.0000029  55.2600050
  61.4900017  57.4900007  54.4300032  60.8600044  55.9300041  55.2200031
  62.1000051  55.9000015  53.8900042  62.2800016  58.6300039  56.4300013
  63.2800007  57.7600050  57.4800014  61.2500048  56.4200020  58.2900047
  60.3000021  57.3200035  57.0800018  61.1500025  58.1900024  58.4800005
  69.7300053  49.8200035  56.0600042  67.0200014  48.9200020  55.0700045
  67.5700045  48.8300037  56.7200041  68.5200024  47.8600025  55.5500031
  69.8400021  50.8500004  53.7800026  68.7200022  49.7600031  53.1300020
  70.1700020  47.7900028  53.6600018  71.1500025  48.8700008  54.6800041
  71.0200024  49.0800047  52.8400040  63.8800049  55.1600027  61.4200020
  65.8900023  56.3900042  61.9800043  66.7700052  54.8700047  62.4900007
  65.3400040  55.4500008  63.2700014  64.0000010  52.7100039  60.9100008
  64.0900040  53.0600023  62.6500034  65.4800034  52.5000048  61.8100023
  70.7400036  54.9700022  55.2300024  68.0400038  56.3000011  54.6000004
  68.6500025  54.6100044  54.1600037  69.4500017  56.1500025  53.5900021
  70.9400034  57.3900032  55.1800013  70.9600019  57.0200014  56.9400024
  69.4300032  57.5900030  56.0900021  69.7800016  51.6400003  60.4400015
  67.7200031  50.2900028  61.0300016  68.2200050  50.5200005  59.2700005
  66.8400049  51.2800026  59.8600006  68.9200020  53.6900043  62.1700048
  69.1800022  52.0900011  62.6800013  67.5600052  52.6700020  62.2100019
