Cpptraj Generated Restart                                                       
 9229  3.0000000E+04
  41.0000038  40.5500031  84.5800018  41.8700027  40.8400011  85.0200081
  40.2700043  40.5100012  85.2700043  41.1000013  39.5800018  84.2800045
  40.5000019  41.3900042  83.5400009  39.9100018  40.7300043  82.9100037
  39.7600007  42.6100016  84.1100025  39.6400023  43.3200026  83.2900047
  40.4300022  43.0400038  84.8500061  38.5300016  42.1700001  84.5900059
  37.8400016  42.5100040  84.0200043  41.6400003  41.9400024  82.6399994
  42.6900005  42.4100018  83.0600071  41.3600016  41.8400002  81.3199997
  40.4600000  41.4600039  81.0500050  42.0900011  42.3600006  80.2099991
  43.0100012  41.7700005  80.2900028  41.4600039  41.9900036  78.8500023
  40.4600000  42.4100018  78.7400055  41.2600040  40.9200001  78.8300037
  42.4100018  42.3500013  77.6600027  42.8100014  43.3600044  77.7600050
  41.7500019  42.4200010  76.7800045  43.4800005  41.2800026  77.5700045
  44.6000004  41.6000032  77.9200029  43.2700014  40.1300001  77.1200037
  42.4400043  43.8600016  80.3700066  43.6000013  44.1800022  80.2800083
  41.4300013  44.7200012  80.5700016  40.4500008  44.4900036  80.6100082
  41.7200041  46.1300039  80.6500053  42.2300005  46.4500046  79.7500038
  40.3999996  46.9300032  80.6100082  39.7300029  46.3800001  79.9500036
  39.7800016  46.8300009  82.0100021  39.7600007  45.7800007  82.2900009
  40.3700018  47.4300003  82.7000046  38.7800026  47.2800016  82.0600033
  40.3400040  48.3700037  80.2099991  39.3600011  48.8400030  80.2700043
  41.0600042  48.9500046  80.7999992  40.8200026  48.3900023  79.2300034
  42.6800013  46.5700006  81.8000031  43.4899998  47.5100040  81.6800022
  42.6600027  45.7900000  82.9100037  42.0100021  45.0300026  82.9300022
  43.5200024  45.9600019  84.0400028  43.6300039  47.0400000  84.1900063
  42.8800011  45.3400040  85.2900028  42.7500010  44.2600012  85.1700020
  43.5800028  45.5900002  86.0900021  41.9000006  45.7300043  85.5600071
  44.9600029  45.4300022  83.7200069  45.9200001  46.0800028  84.1700077
  45.0900030  44.4000006  82.8400040  44.2300034  44.2300034  82.3400021
  46.3400030  43.7600040  82.4200058  47.0100021  43.5200024  83.2600021
  45.8600044  42.4500036  81.6900063  45.7800007  42.6400042  80.6200027
  44.9500036  41.9600010  82.0300007  47.0200014  41.5000010  81.9400024
  48.3200026  41.5900040  81.4800072  48.6800003  42.3300028  80.8900070
  49.0500021  40.5700016  81.8700027  50.1200008  40.6900024  81.7500019
  48.2600021  39.6900010  82.4600029  46.9800043  40.3100014  82.4700069
  46.0800028  39.8600030  82.8500080  47.0800018  44.6700001  81.3800049
  48.2800007  44.7800016  81.5500069  46.4400005  45.3800011  80.4600048
  45.5100012  45.1700020  80.1500034  47.0600033  46.4700031  79.7600031
  48.0100012  46.1600018  79.3200016  46.0800028  46.9900036  78.6700058
  46.6100025  47.7200031  78.0700016  45.2300024  47.4500036  79.1700029
  45.5300045  45.9400034  77.7600050  44.9200010  46.3800001  76.9700050
  44.8100042  45.3100014  78.3000040  46.4800024  45.1100016  76.9700050
  47.4900007  45.5000019  76.8300056  46.0200024  45.0400019  75.9900045
  46.5700006  43.6900043  77.5000048  45.7100010  43.1500006  77.4400043
  47.5300026  42.9400015  78.0400038  48.7400007  43.4300041  78.3400059
  49.0600014  44.3000031  77.9500055  49.4900036  42.9200029  78.7800026
  47.1800041  41.7500019  78.5200024  46.2200022  41.5000010  78.3900023
  47.7400017  41.0100031  78.9200020  47.4300003  47.7400017  80.5200005
  48.2600021  48.5000038  80.1100063  46.9300032  48.0000019  81.7700005
  46.1199999  47.5200033  82.1000004  47.4700022  48.9700031  82.6700020
  47.7800035  49.8500013  82.1000004  46.3900042  49.5100021  83.5900021
  45.9700012  48.7400007  84.2199993  45.5800009  49.8200035  82.9400063
  46.7600012  50.6600046  84.4900036  47.5400019  50.5700016  85.6599998
  48.0100012  49.6600008  85.9600067  47.8900003  51.7300034  86.4600086
  48.5200024  51.7000008  87.3200035  47.2700024  52.9000044  86.0900021
  47.4100018  53.8100004  86.6499996  46.4700031  53.0600023  84.9400043
  46.0900021  54.0500021  84.7399998  46.1700010  51.9300032  84.1400051
  45.4700041  51.9600010  83.3200073  48.7400007  48.5000038  83.4600067
  49.7700024  49.1700029  83.5300064  48.7100029  47.2200012  83.8500023
  47.8500032  46.7000008  83.7300014  49.6400023  46.6000032  84.8300076
  49.9600029  47.3300028  85.5600071  49.0000010  45.4100037  85.5700016
  48.8700008  44.6300030  84.8200035  48.0000019  45.6400013  85.9100056
  49.9000025  45.0100040  86.8400002  50.9500027  45.1200008  86.5700054
  49.7000027  43.9400005  86.9700050  49.8500013  45.7300043  88.1800079
  49.9800014  46.7900038  87.9500008  50.6700039  45.3400040  88.8100052
  48.5000038  45.4900026  88.8500023  47.6000023  45.7300043  88.2900047
  48.5700035  46.0900021  89.7700024  48.5500002  44.0700006  89.3000031
  48.5600042  43.4200001  88.5100079  49.3500042  43.8800001  89.8800087
  47.7200031  43.8100004  89.8100090  50.9700012  46.2000036  84.1400051
  52.1000004  46.3700008  84.6800041  50.8600044  45.8200026  82.8700066
  49.9600029  45.8200026  82.4200058  52.0400047  45.7600021  82.0200062
  52.7900028  45.1900005  82.5600052  51.7000008  44.9000025  80.7900047
  52.5800037  44.7399998  80.1700020  50.9000015  45.4100037  80.2500057
  51.2200022  43.4500027  81.0800076  51.5400028  42.8500032  82.1000004
  50.6200027  42.9600000  80.0699997  52.7100039  47.0300007  81.5400028
  53.8700008  47.0300007  81.2200069  52.0000029  48.1400013  81.4400005
  51.1000013  48.1900024  81.9099998  52.5500011  49.4600010  80.9000015
  53.5100031  49.3100023  80.3900051  51.5500021  50.0900030  79.8100042
  51.8700027  51.0800028  79.4800043  50.6500006  50.1700020  80.4200077
  51.2900019  49.1300011  78.6100054  50.8800030  48.1800032  78.9500046
  50.3600025  49.8700047  77.6500034  49.3600035  49.9000025  78.0700016
  50.7400036  50.8500004  77.3500013  50.2700043  49.2200041  76.7700052
  52.7100039  48.9000034  77.9100037  53.4900045  48.5800028  78.6100054
  52.7400017  48.1100035  77.1500015  52.9700041  49.8400021  77.4100018
  52.8400040  50.5200005  81.9500065  53.9100027  51.1400032  81.8600082
  51.9800043  50.7000017  83.0000019  51.2100029  50.0400019  83.0200005
  51.9500017  51.9700003  83.7100029  52.9400015  52.4200010  83.8000011
  51.7500019  51.7200041  84.7500038  50.9600019  53.0700016  83.2500076
  50.6100035  53.1500006  82.0400047  50.6300020  54.0000010  84.1600037
  51.0100031  53.9100027  85.1000023  49.6500015  55.0400019  83.9400005
  48.7900019  54.5300007  83.5300064  49.4500017  55.7400036  85.2100086
  50.4500008  56.0000038  85.5800056  49.0300035  55.0300026  85.9200001
  48.6400032  56.9700050  85.2500057  47.6000023  56.8000031  84.9900055
  48.9400005  57.6800013  84.4700050  48.8200045  57.6700020  86.5900040
  48.4500027  57.1300030  87.6700020  49.5200014  58.7000036  86.5600014
  49.9500036  56.0700035  82.8400040  49.0600014  56.4600039  82.0600033
  51.2300014  56.4100027  82.6900005  51.9100046  55.9300041  83.2500076
  51.6600037  57.3500013  81.6100025  50.8200026  58.0200005  81.4700031
  52.9600048  58.1000042  82.1600056  53.5400009  58.4900045  81.3100052
  53.5600042  57.3700047  82.7000046  52.8100014  59.3400049  83.1100082
  53.7900019  59.5900011  83.5000038  52.2700024  58.8700008  83.9300060
  51.9900036  60.5300045  82.5900078  51.5800047  61.3200045  83.4200001
  51.6700029  60.6900024  81.4000034  51.8400002  56.6600037  80.2400017
  51.3500023  57.1500015  79.2200041  52.4300003  55.4600048  80.2700043
  52.7300024  55.1400042  81.1800003  52.4700022  54.7500038  78.9300060
  52.8400040  55.5100012  78.2300043  53.4100008  53.5500002  79.1200018
  53.3900023  53.0100012  78.1800032  53.0800009  53.0500031  80.0300026
  54.8100042  53.9900017  79.2200041  55.4200029  54.6000004  78.3600044
  55.4600048  53.6600018  80.3500080  54.9300003  53.1800032  81.0700035
  56.3600016  54.1000032  80.5200005  51.0300016  54.2300034  78.5000038
  50.6600046  54.2800045  77.3700047  50.1000023  54.0300035  79.4300032
  50.3800011  53.9600039  80.4100037  48.7200022  53.7000036  79.1900015
  48.6100006  52.9300022  78.4200048  48.0600023  53.1500006  80.4200077
  48.3000040  53.7900019  81.2700081  48.5900021  52.2300005  80.6700039
  46.6100025  52.8300047  80.4100037  45.6300020  53.8200045  80.5800056
  46.0000038  54.8100042  80.7999992  44.2500019  53.4900045  80.4500008
  43.5600042  54.3200016  80.5700016  43.8500023  52.1800041  80.1800060
  42.8000021  51.9200039  80.1100063  44.8200035  51.2100029  80.0000000
  44.6000004  50.2600002  79.5300055  46.1199999  51.5900040  79.9600029
  46.8500042  50.8300018  79.7300053  48.0900002  55.0000048  78.5400057
  47.7000046  55.0600004  77.3800039  48.0900002  56.1100006  79.2700052
  48.6000013  56.0800028  80.1399994  47.4100018  57.3600006  78.8800049
  46.3300037  57.1800041  78.7600040  47.5600004  58.4200048  79.9700022
  47.3400021  59.4200039  79.5800018  48.6000013  58.4400034  80.2700043
  46.6400003  58.1100035  81.1900043  46.7700005  57.1400023  81.6600037
  45.6700039  57.9900026  80.7000065  46.5900040  59.0600014  82.3700047
  47.6100016  59.2100048  82.7200031  45.9400034  58.5700035  83.0900002
  46.0900021  60.4300022  82.0300007  45.3900003  60.5000019  81.1900043
  46.8700027  61.1500025  81.7500019  45.3800011  61.1100006  83.0900002
  44.5200014  60.6200027  83.3200073  45.9600019  61.1600018  83.9100075
  45.1900005  62.0600033  82.7900028  47.8400040  57.8900051  77.4900055
  46.9000006  58.2300043  76.7500019  49.1200018  57.9400015  77.0700026
  49.8600006  57.6600027  77.7000046  49.5000029  58.1700039  75.7200050
  49.0800047  59.1300011  75.4300022  51.0200024  58.0200005  75.6900024
  51.5100002  58.7400007  76.3500023  51.3300037  57.0200014  76.0000038
  51.3700008  58.3100033  74.7000027  49.0000010  57.1000004  74.6100044
  48.5900021  57.5700045  73.5500050  48.8700008  55.7800007  74.8100042
  49.2600012  55.4400015  75.6800032  48.3600044  54.8900032  73.8100052
  48.7800026  55.0000048  72.8100014  48.6900043  53.3600044  74.1100025
  48.1900024  52.7000046  73.4000015  48.2500029  53.0100012  75.0400019
  50.2100039  53.0300045  74.1200018  50.5300045  53.4000015  75.1000023
  50.5800009  51.5600014  74.1400051  51.5900040  51.5200043  74.5500040
  49.8800039  50.8900023  74.6500015  50.6600046  51.1500025  73.1300020
  51.0500002  53.5700035  72.9600048  52.1000004  53.3100033  73.0600023
  50.6400013  53.1700039  72.0400047  50.9900045  54.6600008  72.9900026
  46.8600035  54.9900007  73.8000011  46.2500000  54.6400023  72.7600050
  46.2500000  55.5000019  74.8500013  46.8300009  55.5900049  75.6900024
  44.8100042  55.8900023  74.9100018  44.2400026  55.1100016  74.4000053
  44.2400026  55.8300018  76.2900019  44.8200035  56.5600014  76.8700027
  42.7400017  56.1000013  76.3400030  42.5100040  56.1400032  77.4100018
  42.5699997  57.0400047  75.8600044  42.1300030  55.4100037  75.7500029
  44.4500017  54.4000006  76.9200039  45.4300022  53.9500046  76.7000055
  44.1100025  54.3400049  77.9500055  43.7900019  53.6900043  76.4100027
  44.4500017  57.1900034  74.2400026  43.5100031  57.2300005  73.4800053
  45.1900005  58.3100033  74.3600035  45.9700012  58.2700014  75.0000048
  45.1900005  59.4500017  73.5300016  44.1900015  59.8600006  73.6400032
  46.3000011  60.5100012  73.9900017  47.2500038  59.9700022  74.0000057
  46.0400009  60.9100008  74.9700022  46.4400005  61.6600037  73.0200052
  46.5500021  61.2200022  72.0300055  45.1500034  62.4500036  72.9100037
  44.3200016  61.8500042  72.5200033  44.8800039  62.9800034  73.8200045
  45.4100037  63.2000017  72.1600056  47.5400019  62.6800013  73.4100056
  47.2300005  63.4300041  74.1400051  48.3400011  62.1500015  73.9300013
  47.9400015  63.1900024  72.5300026  45.3700018  59.0600014  72.0500040
  44.7399998  59.7200012  71.2200022  46.3700008  58.2200050  71.7800045
  46.8600035  57.8300047  72.5700045  46.6100025  57.7900028  70.3900051
  46.6700029  58.6900043  69.7800016  47.9500008  56.9600010  70.2500010
  48.0200005  56.1600018  70.9900045  48.0300045  56.3200045  68.7800026
  47.1600008  55.7200003  68.5600042  48.0400038  57.1500015  68.0700016
  48.9300013  55.7000017  68.6800051  49.1000032  58.0400038  70.4300022
  48.8500023  58.7800026  71.1700010  49.4000006  58.5500050  69.5100021
  50.4300022  57.3000050  70.8600044  50.6800032  56.4100027  70.2900028
  51.2700033  57.9700041  70.6800032  50.3400040  57.1300030  71.9400024
  45.4000044  56.9600010  69.8500013  44.9200010  57.2200012  68.7800026
  44.9000025  56.0100031  70.5900049  45.3600025  55.9500027  71.5000057
  43.7700033  55.1600027  70.3400040  43.8500023  54.5800018  69.4100046
  43.6000013  54.2100048  71.5100050  44.4700003  53.5400009  71.5600014
  43.4500027  54.7300005  72.4500036  42.7900028  53.5200024  71.2800026
  42.4500036  55.9200048  70.0600052  41.6400003  55.4100037  69.3300056
  42.3500013  57.1800041  70.5300045  43.1300020  57.5800037  71.0500050
  41.2300014  58.0800009  70.2300024  40.3400040  57.4800014  70.1400042
  40.8100033  59.0400028  71.4500046  40.3000021  59.9600029  71.1500025
  41.6600037  59.3600035  72.0400047  39.8500013  58.3800030  72.4300051
  38.6000013  57.9800034  71.9500017  38.1900024  58.2200050  70.9700012
  37.7900028  57.1300030  72.7700043  36.7900014  56.9300032  72.4100018
  38.2500029  56.7000008  74.0200043  37.5500011  56.1200047  74.6000051
  39.4800019  57.1900034  74.5400047  39.8400021  56.9500017  75.5200052
  40.3000021  57.9300022  73.6800051  41.3000011  58.1600046  74.0200043
  41.4800024  58.9500046  69.0300035  40.6700039  59.0400028  68.1300020
  42.7100039  59.5600033  68.9900017  43.4100008  59.4600010  69.7100019
  42.9700041  60.5400038  67.8900051  42.1200037  61.2100029  67.7800035
  44.0900040  61.3800049  68.4200048  44.5400000  61.9900036  67.6300049
  43.7700033  62.0200014  69.2400026  44.9100018  60.7300043  68.7700033
  43.2200003  59.9100018  66.4900017  42.9500008  60.5900049  65.4800034
  43.7500000  58.6700010  66.4100027  44.1600037  58.2300043  67.2300053
  43.8100004  57.9400015  65.1300049  44.2799997  58.6000013  64.3900013
  44.7800016  56.8300009  65.3700018  44.7500038  56.1200047  64.5400047
  44.4600010  56.2700033  66.2400055  46.2900019  57.2900009  65.5700016
  46.4300013  57.7900028  66.5300035  46.4800024  58.0300045  64.8000050
  47.3300028  56.1300039  65.4200029  47.0200014  54.9600029  65.7000017
  48.4800005  56.4800024  64.9200010  48.6100006  57.4000025  64.5300007
  49.1300011  55.7100010  64.7700024  42.4000025  57.5200033  64.5600033
  42.2800016  56.9200039  63.4900045  41.2700033  57.7500010  65.3100014
  41.3400030  58.2600021  66.1800051  39.8100019  57.5700045  64.9100018
  39.6800017  57.2000027  63.8900042  39.1600013  56.5000010  65.9000015
  38.0700016  56.6300011  65.8200026  39.4100022  56.7500019  66.9200039
  39.4400024  55.0200033  65.5200052  39.4400024  54.5600033  64.1800022
  39.2600012  55.2900028  63.4000015  39.6000028  53.2200003  63.8400030
  39.5400023  52.8200006  62.8400040  39.7500014  52.2300005  64.8100042
  39.8700023  50.9300041  64.5300007  39.7100019  50.5100012  65.3700018
  39.8800015  52.5900030  66.1700010  39.9800014  51.8200016  66.9300032
  39.7500014  54.0000010  66.5100050  39.8500013  54.3400049  67.5300026
  39.0600014  58.9400005  64.8400021  38.4500027  59.3900013  63.8300037
  39.0800023  59.7300005  65.8700037  39.6700025  59.5000029  66.6500044
  38.6100030  61.1400032  65.9900045  37.8400016  61.4800024  65.2800035
  38.0500007  61.4600039  67.4200010  37.8900027  62.5400019  67.4900055
  38.8600016  61.2600040  68.1300020  36.9100022  60.5900049  67.9200029
  37.0700026  59.5100021  67.7800035  36.6800022  60.6300020  69.4400024
  37.5600028  60.2100039  69.9200010  36.4100027  61.6400051  69.7400045
  35.7900023  60.0300026  69.6500015  35.6400013  60.8700037  67.1500015
  35.5900025  61.9200039  66.8800020  35.4900026  60.3200006  66.2300014
  34.7700024  60.6500006  67.7700043  39.7800016  62.1200037  65.6900024
  40.1200008  62.9000044  66.5400028  40.2600002  62.0600033  64.3900013
  39.8600030  61.3900042  63.7500048  41.1500025  63.1100035  63.8800049
  42.1000004  63.0700016  64.4000053  41.5700006  62.7900028  62.4500036
  42.3300028  63.5400009  62.2400045  40.6800032  62.9500008  61.8400049
  42.2000027  61.4500046  62.1600008  41.4700031  60.7200050  62.5100040
  43.1400013  61.2600040  62.6800013  42.4400043  61.1200047  60.6600046
  41.7100000  60.4000044  60.0500011  43.5700035  61.5100050  60.1200008
  44.2900038  61.9600010  60.6600046  43.8100004  61.0200024  59.2600012
  40.5800009  64.5400047  63.9000034  41.2100029  65.5100012  64.2400026
  39.2000008  64.6100044  63.6600018  38.6300015  63.7800026  63.6100054
  38.4100008  65.8800030  63.6000013  39.1500020  66.5800047  63.2200050
  37.3000026  65.7700014  62.6300049  36.5400028  66.5300035  62.8000021
  36.8300009  64.8100042  62.8600025  37.7000022  65.7400036  61.1400032
  36.7200017  65.5500031  60.7000017  38.3600020  64.8900032  60.9600019
  38.2900023  67.0800018  60.6700039  38.2900023  68.0500031  61.3500023
  38.8400030  67.1700048  59.5200014  38.6200023  66.5000010  58.8000011
  39.2900014  68.0600023  59.3600035  37.9700017  66.5300035  64.9300051
  37.4600029  67.6700020  64.9600029  38.2200027  65.8800030  66.0600042
  38.6400008  64.9800014  65.9100008  37.8800011  66.3900042  67.4100018
  36.9800019  66.9900036  67.2400045  37.6500010  65.0900030  68.2800055
  38.6000013  64.5600033  68.4100056  36.8900013  64.4300032  67.8900051
  37.0400023  65.4700041  69.9600029  37.9900026  66.3600016  70.2900028
  39.0300012  67.2900009  67.9600048  40.1600027  66.8200016  67.7300024
  38.7200022  68.4300041  68.5800028  37.4100018  68.9400053  68.7200022
  36.7800021  68.2900047  69.3300056  36.8600011  69.1800022  67.8000021
  37.4600029  70.1100016  69.7100019  37.2500014  69.7900057  70.7300043
  36.8300009  70.9900045  69.4800043  38.9600015  70.5200052  69.5400047
  39.3200016  70.9900045  70.4600048  38.9400029  71.2000036  68.6900043
  39.7700024  69.2600012  69.2100048  40.5100012  69.4500017  68.4300041
  40.3299999  68.5800028  70.4600048  39.7600007  67.6800013  71.0800028
  41.4600039  69.0900040  70.9800053  41.9700003  69.8600054  70.5800056
  42.1500015  68.6300039  72.1600056  42.3699999  67.5800037  71.9600058
  43.5500002  69.3400049  72.2600031  43.4200001  70.4000044  72.4400043
  44.1100025  69.1800022  71.3400030  44.4200039  68.7700033  73.3700037
  44.6300030  67.3500013  73.4400034  44.2100000  66.6500044  72.7400017
  45.3800011  66.8400049  74.4800043  45.4800034  65.7800055  74.5800018
  45.8900023  67.6900053  75.5100060  46.3700008  67.2400045  76.3700056
  45.7200003  69.0900040  75.3900051  46.2300014  69.7700024  76.0600042
  44.9400043  69.6300030  74.3600035  44.7500038  70.6900024  74.2600012
  41.3900042  68.7300014  73.5000038  41.4800024  67.7600050  74.2600012
  40.6800032  69.8100042  73.8300037  40.5100012  70.4600048  73.0800056
  39.9400020  70.0500011  75.1500034  40.7100010  69.8400021  75.8900023
  39.6900010  71.5500021  75.2600050  40.6300020  72.0300055  75.0100040
  39.4600010  71.7800045  76.3000059  38.4700012  72.0800018  74.4600058
  37.5200009  71.6300011  74.7800016  38.5200024  71.8400049  73.4000015
  38.2200027  73.5500050  74.7400045  37.1300006  73.9100027  75.2400017
  39.1000009  74.3700027  74.3900013  38.8200021  69.0900040  75.3700018
  38.4400010  68.8500023  76.4600039  38.2700014  68.5100031  74.3200016
  38.7400007  68.7100029  73.4400034  37.3000026  67.3900032  74.2700052
  36.8000007  67.3800039  75.2400017  36.1900020  67.7300024  73.1800032
  35.5500007  66.8800020  72.9500055  36.6900015  67.9900026  72.2400045
  35.3500009  68.9200020  73.6300039  34.8300028  69.5300055  72.6900053
  35.1400018  69.1200018  74.8000050  38.0100012  66.0000038  74.2000055
  37.4200010  65.0600052  74.6700048  39.2300010  65.9200048  73.6700058
  39.6800017  66.7300034  73.2800055  39.9300027  64.5700026  73.6800051
  39.2900014  63.8000011  73.2400036  41.2400007  64.6500015  72.8400040
  42.0000029  64.1300011  73.4300041  41.5799999  65.6800032  72.7000046
  41.1000013  64.0700054  71.4600039  41.0900021  62.6800013  71.2400055
  40.8200026  62.4900007  69.9400043  40.8000040  61.5300035  69.4300032
  40.9200001  63.7000036  69.2700052  40.9100008  63.8200045  68.2700014
  41.0200024  64.6400023  70.2400017  41.0700035  65.7200050  70.1000023
  40.1900005  64.0300035  75.1300049  40.0500011  62.8100014  75.4100037
  40.6700039  64.9000025  76.0100031  40.8200026  65.8400011  75.6900024
  41.3100004  64.4400024  77.3000050  42.1200037  63.7700033  77.0400047
  42.1900034  65.5000019  78.1100035  42.3400021  65.1500034  79.1300058
  43.5500002  65.8000040  77.3300028  43.4100008  66.0800028  76.2900019
  44.1200018  66.6200018  77.7800035  44.1900015  64.9200010  77.3400021
  41.5000010  66.9200039  78.1300020  40.4900026  66.7200041  78.4900045
  42.1099997  67.5900030  78.7300014  41.4600039  67.2300053  77.0900059
  40.2600002  63.7800026  78.2100058  40.6100035  62.8900051  78.9700031
  38.9700007  64.1500044  78.0800056  38.7500024  64.9300051  77.4900055
  37.8300023  63.5100031  78.7700033  38.0400014  63.5900021  79.8300028
  36.5200019  64.2200041  78.4400034  35.7100010  63.6500025  78.8700056
  36.2900019  64.2900038  77.3700047  36.3700008  65.6700039  79.0600014
  37.0700026  66.3200045  78.5500050  36.5300012  65.6600046  80.1399994
  34.9900007  66.1500025  78.6600018  34.2500019  65.4600048  79.0600014
  34.9100018  66.1500025  77.5800037  34.7900009  67.5400019  79.3100023
  35.6100011  68.1600046  78.9600039  34.7700024  67.4500036  80.3999996
  33.5400009  68.1800032  78.8600016  33.2700014  68.9700031  79.4300032
  33.5700011  68.5100031  77.9100037  32.7800012  67.5100040  78.9700031
  37.7100015  61.9900036  78.4300041  37.7300024  61.1600018  79.3500042
  37.7700019  61.5800047  77.1500015  37.7800012  62.3600006  76.5000057
  37.7000022  60.2100039  76.7200041  36.6900015  59.9400043  77.0400047
  37.5400019  60.0200033  75.2300024  37.2900009  58.9800024  74.9800014
  38.5600019  60.1300049  74.8600054  36.5700006  60.9400034  74.4700050
  36.9100022  61.9500017  74.6900034  36.7400026  60.7000017  72.9700041
  37.7800012  60.4300022  72.8000021  36.0800028  59.9100018  72.6000023
  36.4800024  61.5900040  72.3900032  35.0900006  60.7500029  74.8500013
  34.7800016  59.7500038  74.5500040  35.0500011  60.9600019  75.9200048
  34.6000028  61.5600014  74.3100023  38.8600016  59.3500042  77.3600054
  38.6400008  58.2500029  77.9600048  40.0400019  59.9000025  77.3700047
  40.2100039  60.6900024  76.7600060  41.2500000  59.2300034  77.9400015
  41.4200020  58.2900047  77.4300051  42.5100040  60.1300049  77.5700045
  42.2800016  61.1200047  77.9800034  43.8200045  59.6300030  78.2600021
  43.6300039  59.4200039  79.3100023  44.1200018  58.7500048  77.6800060
  44.5900011  60.4000044  78.2900047  42.6600027  60.3600025  76.0400057
  41.7300034  60.8500051  75.7300043  43.5000038  61.0100031  75.8000040
  42.7200031  59.4100046  75.5100060  41.0600042  59.0200043  79.4700050
  41.5900040  57.9800034  79.9200058  40.5500031  59.9800014  80.2800083
  40.3800011  60.8900023  79.8700047  40.4300022  59.8300028  81.7100048
  41.2700033  59.2400026  82.0600033  40.2300024  61.1200047  82.4900055
  39.9300027  60.8400011  83.4899998  39.4300008  61.6800022  82.0000076
  41.5200043  61.9700050  82.5800037  42.3000002  61.8500042  83.4800053
  41.6600037  62.8300047  81.5799999  41.0000038  62.9500008  80.8300018
  42.4500036  63.4600019  81.6700077  39.2600012  58.8500023  81.9799995
  39.4100022  58.1100035  82.9400063  38.1500030  58.9400005  81.1900043
  38.1600022  59.5000029  80.3500080  36.9500017  58.1300020  81.5000057
  36.6500020  58.3100033  82.5300026  35.7400012  58.5100031  80.6599998
  35.8800006  58.1600046  79.6400023  35.7300019  59.6000051  80.6700039
  34.4500017  57.9700041  81.2600040  34.2100024  58.4100008  82.2399998
  34.6000028  56.9000006  81.3600063  33.2700014  58.2200050  80.3600025
  32.2500014  57.5000048  80.3600025  33.2500005  59.1800022  79.6000051
  37.3400021  56.6000032  81.4300060  36.9200015  55.8200026  82.2500038
  38.2400012  56.3600016  80.5000019  38.5500026  57.1700048  79.9800014
  38.8300014  55.0300026  80.2300072  37.9900026  54.3400049  80.3500080
  39.4300008  54.8700047  78.8000059  40.0500011  55.7100010  78.4800053
  40.3000021  53.5800028  78.6900043  40.9600019  53.4800005  79.5400047
  39.5300007  52.8100014  78.7000036  40.8100033  53.4900045  77.7300024
  38.3600020  54.7500038  77.7500057  37.5400019  54.1200018  78.0900049
  37.9000020  55.7000017  77.4800014  38.8400030  54.4400024  76.8200016
  39.8800015  54.7100019  81.3700008  39.9200010  53.5600042  81.8600082
  40.6800032  55.7100010  81.7500019  40.5900002  56.6100025  81.2900066
  41.6600037  55.4400015  82.8400040  42.2000027  54.5300007  82.5699997
  42.6700020  56.6100025  82.8900051  42.1400023  57.4700022  83.2900047
  43.8900042  56.3100004  83.8199997  43.4899998  56.2400007  84.8300076
  44.4600010  55.4400015  83.4899998  44.6700001  57.0700026  83.7400055
  43.2700014  56.8700027  81.6700077  42.6000023  57.1500015  81.0300064
  41.1700010  55.1300049  84.2900085  41.6000032  54.2500019  85.0300026
  40.1100016  55.8900023  84.6700001  39.7500014  56.5300035  83.9700031
  39.1800022  55.6100035  85.8200073  39.7100019  55.7200003  86.7600060
  38.0100012  56.6100025  85.7400036  37.1600008  56.2800026  86.3500023
  37.6700020  56.7000008  84.6900082  38.3000016  58.0100012  86.2400055
  38.9900017  58.5200024  85.5800056  38.6900020  57.9900026  87.2500038
  36.9900012  58.8200045  86.2800026  36.5600014  59.4000006  85.2300072
  36.2000012  58.7300014  87.2600079  38.7200022  54.1300011  85.7700062
  38.8300014  53.4600019  86.8400002  38.1000018  53.6800003  84.6400070
  37.9300022  54.3000031  83.8500023  37.6400018  52.2700024  84.5700073
  36.8400025  52.1300030  85.2900028  36.9800019  52.2000027  83.1800079
  37.7400017  52.5100040  82.4500084  36.1900020  52.9500008  83.0900002
  36.4800024  50.7900047  82.8500080  36.9400024  50.2000046  81.6600037
  37.6200008  50.6800032  80.9700012  36.5700006  48.9000034  81.3400078
  36.9600010  48.4400034  80.4400063  35.7600021  48.2200003  82.2300053
  35.5200028  47.2000027  81.9700050  35.3000021  48.8200045  83.4000015
  34.6900010  48.2400036  84.0799999  35.6200027  50.1500034  83.7300014
  35.2000022  50.6600046  84.5900059  38.8500023  51.3100004  84.6800041
  38.8600016  50.4100037  85.5300045  39.9800014  51.6000032  84.0900040
  39.9400020  52.2900009  83.3600044  41.1600018  50.7400036  84.1000080
  40.8599997  49.7300005  83.8199997  42.1700001  51.2800026  83.1100082
  42.5400019  52.2300005  83.4700012  43.0400038  50.6300020  83.0800056
  41.6700029  51.4900017  82.1700001  41.7700005  50.6400013  85.5200005
  42.1600008  49.4900036  85.8600044  41.9000006  51.7200041  86.3500023
  41.6800022  52.6400042  86.0000038  42.3300028  51.6900015  87.8000069
  43.2200003  51.0700035  87.8000069  42.5800037  53.0600023  88.3100033
  42.7900028  52.9400015  89.3700027  41.7200041  53.7200022  88.2600021
  43.8700008  53.6700010  87.8100014  43.7700033  53.9600039  86.7700005
  44.6900034  52.9800034  87.9700089  44.2799997  54.8800039  88.6900043
  44.3000031  54.6200037  89.7600079  43.6100006  55.7100010  88.5400009
  45.6500006  55.4400015  88.3200073  45.6599998  55.9500027  87.3600006
  46.3600016  54.6300030  88.1300068  46.3000011  56.4400005  89.1800022
  45.6599998  57.1600008  89.5000076  46.6900015  55.9200048  89.9500084
  47.0600033  56.8600035  88.6600018  41.3800001  50.9400034  88.6800003
  41.8100023  50.1600027  89.5200062  40.0699997  51.1700010  88.3800030
  39.8600030  51.8700027  87.7000046  39.0400028  50.5300045  89.0100002
  39.2000008  50.6900024  90.0699997  37.6300025  50.9900045  88.5800076
  37.4400020  50.6800032  87.5600052  36.5200019  50.4700041  89.5300007
  36.3200021  49.4200039  89.3700027  36.7900014  50.5400038  90.5800056
  35.6300020  51.0500002  89.3100071  37.4200010  52.3600006  88.5300064
  37.8200006  52.6100016  87.6900005  39.2300010  48.9900017  88.8100052
  39.1800022  48.2700014  89.7800064  39.4400024  48.5700035  87.5699997
  39.3700027  49.1700029  86.7600060  39.6700025  47.1600008  87.3300076
  38.9200020  46.5600014  87.8299999  39.5400023  47.0100021  85.8400059
  39.7500014  45.9700012  85.6000042  40.1999998  47.6900005  85.3100014
  37.8500009  47.3000002  85.2300072  41.0600042  46.6900015  87.8299999
  41.1800003  45.5500031  88.1400013  42.0900011  47.5200033  88.0900002
  41.9200039  48.5100031  87.9500008  43.3100033  47.1200037  88.9200020
  43.6500025  46.1400032  88.5800076  44.4500017  48.2400036  88.7600040
  43.9499998  49.2000008  88.8800049  45.6700039  48.0400038  89.7600079
  46.1100006  47.0400000  89.6900082  46.4500046  48.7900019  89.5600033
  45.2900028  48.1100035  90.7700062  45.0600004  48.2300043  87.2700024
  44.2900038  48.3700037  86.5100002  45.7900000  49.0300035  87.2700024
  45.7300043  47.3900032  87.1200085  42.8600025  46.8800020  90.3999996
  43.4000015  45.9700012  90.9700012  41.8400002  47.6100016  90.9700012
  41.4600039  48.4400034  90.5300045  41.3100004  47.1200037  92.3000050
  42.1200037  46.8600035  92.9800034  40.6300020  48.2900000  92.9700089
  39.8800015  48.7600040  92.3400021  40.3400040  47.9200029  93.9600086
  41.3900042  49.0600014  93.1400013  40.4400015  45.8100033  92.1400070
  40.4700041  44.9200010  93.0300045  39.6600008  45.7100010  91.0500050
  39.7500014  46.5300035  90.4500008  38.4200025  44.9100018  91.0500050
  37.9200029  45.1700020  91.9900036  37.5400019  45.3200006  89.8600006
  37.9200029  44.8000002  88.9800072  37.4800014  46.3800001  89.6400070
  36.1300015  44.8200035  90.1000023  35.5800009  44.9900007  91.2100029
  35.6500006  44.1200018  89.1700077  38.5900021  43.3800030  91.1400032
  39.4100022  42.8500032  90.4800034  37.6700020  42.6900005  91.8000031
  36.9000006  43.1500006  92.2600079  37.3200011  41.2200022  91.7000008
  37.8300023  40.8800030  90.8000088  37.7600026  40.3900003  92.8500080
  38.8300014  40.5600023  92.9300022  37.6500010  39.3200016  92.6600075
  37.2800016  40.7900000  94.2200089  36.3100028  40.3600025  94.4600010
  37.2800016  41.8700027  94.3900013  38.1300020  40.1999998  95.3299999
  37.8900027  39.0500021  95.7600021  39.2100024  40.7700014  95.6200027
  35.7700014  40.9899998  91.5500069  35.4600024  39.9000025  91.0600090
  34.8800015  41.9600010  91.8600082  35.3300023  42.7100039  92.3700047
  33.4000015  41.9700003  91.7100048  32.9900026  41.2300014  92.4100018
  32.8200006  43.3700037  92.0800018  33.5100007  43.8200045  92.7800083
  31.8400025  43.2800007  92.5300026  32.8900027  44.2600012  90.9700012
  33.8200021  44.5000029  90.9899998  32.9400015  41.5600014  90.2700043
  31.9800019  40.7600021  90.1900005  33.6800027  42.0700026  89.2900085
  34.3600011  42.7900028  89.4799995  33.4100008  41.7900038  87.8500080
  34.1500020  42.3200035  87.2399998  33.6600018  40.2900028  87.5500011
  33.6400008  40.1200008  86.4700031  34.6300006  39.9900007  87.9700089
  32.8700018  39.6400023  87.9100037  32.1400023  42.2900009  87.1200085
  31.9100022  41.8500042  86.0100079  31.3200021  43.0700016  87.7500057
  31.6900015  43.4000015  88.6400032  30.0000024  43.4200001  87.2500038
  29.5300007  42.5000000  86.9000053  29.1400003  44.1000032  88.3200073
  28.2000017  44.5100021  87.9400063  29.6400023  44.9400043  88.7900066
  28.7000012  43.1400013  89.4500065  29.6200013  42.7600002  89.9000072
  28.0900002  42.3400021  89.0300083  27.8700018  43.9000034  90.5100060
  26.7500019  43.4700012  90.6800079  28.3600020  44.8500013  91.1700058
  30.1600003  44.2799997  85.9899998  29.2600012  44.4000006  85.1600075
  31.3900018  44.8500013  85.7400036  31.9500017  44.6800041  86.5700054
  31.7600012  45.8000040  84.7200012  31.0600019  45.7300043  83.8800049
  31.6500020  47.2100019  85.3800011  31.6800022  47.9600000  84.6000004
  32.4800014  47.4200010  86.0500050  30.3100014  47.4200010  86.0800076
  29.3300009  47.6400042  85.4300022  30.4000020  47.6800013  87.3700047
  31.2300014  47.4500036  87.9100037  29.5100021  47.8700018  87.8100014
  33.1500006  45.6300020  84.1200066  33.3700013  46.1199999  83.0700016
  34.0700006  44.8900032  84.7800064  33.7200022  44.4800043  85.6400013
  35.5000019  44.6600008  84.4200039  35.8400011  45.5300045  83.8700008
  36.4000010  44.5400000  85.6400013  37.3800015  44.1600037  85.3400040
  36.0100007  43.8500023  86.3800049  36.6400027  46.1400032  86.4300060
  35.7100010  43.5600042  83.3800030  36.7500019  43.3800030  82.8600025
  34.6400023  42.8000021  83.1100082  33.8200021  43.0100012  83.6600018
  34.5800018  41.7300034  82.0700073  35.4600024  41.0900021  82.2100067
  33.3900023  40.9100008  82.3300076  33.4000015  40.5400038  83.3600044
  33.4700012  40.0600004  81.6600037  32.0400023  41.6700029  82.1600056
  31.9400024  42.9300022  82.2200012  31.0300016  40.9100008  82.0200062
  34.6600008  42.2200012  80.6200027  35.2600026  41.5900040  79.7900057
  34.1300011  43.4600019  80.3600025  33.4600019  43.8300037  81.0300064
  34.1100025  44.1000032  79.0900040  33.3800006  43.5500002  78.4800053
  33.5200024  45.5700016  79.1900015  34.2200017  46.1900043  79.7500038
  32.6200008  45.5600023  79.8200035  33.2300019  46.0600042  77.7900028
  32.6000023  45.3200006  77.3100042  34.1700006  46.2500000  77.2700024
  32.4700022  47.3699999  77.9500055  33.1700015  48.1900024  78.1100035
  31.6800022  47.2700024  78.6900043  31.8200016  47.6600027  76.6200018
  31.3600016  46.7400026  76.2400055  32.6000023  47.9200029  75.9000015
  30.7400012  48.6800003  76.7500019  30.3000021  48.7700033  75.8500051
  30.0400019  48.4300041  77.4400043  31.2100005  49.5000029  77.1000051
  35.3900027  44.0200043  78.3200026  36.4800024  44.2900038  78.8500023
  35.3700018  43.6400032  77.0200014  34.4800019  43.2600021  76.7200041
  36.4800024  43.7100029  76.0500050  37.3200011  43.1200027  76.4300013
  36.1400008  43.0700016  74.6900034  36.9700027  43.0700016  73.9700031
  35.4300022  43.6900043  74.1500044  35.7000017  41.7400026  74.8700047
  36.4300013  41.1899996  74.5800018  37.0200014  45.1300001  75.7900047
  36.3100028  46.0500002  76.1800051  38.1200027  45.2400017  75.0100040
  38.4300017  44.4200039  74.5100021  38.7200022  46.5400028  74.7400045
  38.4600019  47.0300007  75.6700039  40.2500010  46.4400005  74.6200037
  40.5500031  47.5000000  74.6600056  40.3900003  45.9900045  73.6400032
  40.9899998  45.5500031  75.5900049  40.7200003  44.5100021  75.4600048
  42.4900007  45.8100033  75.3100014  42.9300022  45.0100040  75.9100056
  42.7200031  45.6400013  74.2600012  42.7700043  46.8300009  75.5600023
  40.7500029  45.9100008  77.0300055  40.8200026  46.9700003  77.2900057
  39.7200012  45.5800009  77.2100019  41.4100027  45.3000021  77.6400042
  38.0100012  47.1500015  73.5900021  37.6700020  48.3000040  73.6200047
  37.7000022  46.3700008  72.6100016  37.9200029  45.3800011  72.6800013
  37.1000028  46.8300009  71.3300037  37.7200007  47.6600027  70.9700012
  37.1500015  45.7800007  70.1900053  38.1800008  45.4600000  70.0700045
  36.8900013  46.2000036  69.2100048  36.4000010  44.5000029  70.4200029
  36.4000010  43.7000036  71.5300035  35.5800009  42.6700020  71.2800026
  35.4100013  41.8400002  71.9700050  35.0300026  42.7700043  70.1000023
  34.4600010  42.0700026  69.6400023  35.5500007  43.9400005  69.5700026
  35.1800013  44.4200039  68.6800051  35.6800008  47.4100018  71.5100050
  35.3700018  48.4300041  70.8700037  34.8800015  46.8700027  72.5000048
  35.1700020  46.0300016  72.9800034  33.5600019  47.3699999  72.8700018
  33.0800009  47.7000046  71.9600058  32.7000022  46.2100029  73.3600044
  31.7000008  46.5300035  73.6400032  32.4500012  45.1700020  72.3200035
  33.3300018  44.9000025  71.7500019  32.1100020  44.2100000  72.7200031
  31.7700005  45.6599998  71.6200018  33.3500028  45.5100012  74.4000053
  32.8500009  44.7500038  74.7100019  33.6400008  48.6200047  73.7800026
  32.6500010  49.4200039  73.8400030  34.7200012  48.8200045  74.4400024
  35.4300022  48.1100035  74.3800020  35.0300026  49.9800014  75.3100014
  34.1900015  50.0900030  76.0000038  36.4000010  49.7700024  76.0900021
  37.2100019  50.2500010  75.5300045  36.5900016  48.7000036  76.1100054
  36.3900018  50.3100014  77.5400019  37.4100018  50.1700020  77.8900051
  35.3600025  49.6100044  78.4100056  34.3500018  49.7100019  78.0100060
  35.5600023  48.5600042  78.6200047  35.4100013  50.2000046  79.3300056
  35.9500027  51.8200016  77.6100016  36.0600019  52.3000002  78.5800028
  36.5400028  52.3700047  76.8800020  34.9500012  52.0200014  77.2200060
  35.0600028  51.1900043  74.4000053  34.4600010  52.1600008  74.6600056
  36.0300016  51.2100029  73.4800053  36.7200017  50.4900026  73.4600019
  36.1300015  52.3100042  72.5100040  36.1800027  53.3100033  72.9500055
  37.4300027  52.0800018  71.7200041  37.5100017  52.7800035  70.8800030
  37.3400021  51.1400032  71.1700010  38.7100029  52.1600008  72.6300049
  39.2400026  53.4100008  72.9900026  38.7800026  54.3600035  72.7400017
  40.5600023  53.5800028  73.4800053  40.9600019  54.5600033  73.7400055
  41.3300037  52.4600029  73.7200022  42.3699999  52.4800014  73.9900017
  40.7700014  51.1900043  73.4800053  41.3100004  50.3000021  73.7300014
  39.5100021  51.1200047  72.9400015  39.1100025  50.1600027  72.6100016
  34.8400021  52.3200035  71.6800022  34.3200016  53.3900023  71.3500023
  34.2600012  51.1600018  71.3200045  34.7000027  50.2900028  71.6000032
  32.9500008  50.9800005  70.6300020  32.6600027  49.9300003  70.6800032
  33.0000019  51.2100029  69.5600033  31.7700005  51.6900015  71.2800026
  30.9600019  52.2700024  70.6100035  31.7700005  51.7500019  72.6100016
  32.4200010  51.1600018  73.1000042  30.9100008  52.6600027  73.3700037
  29.9200010  52.6700020  72.9000044  30.6200004  52.0900011  74.7800016
  31.5100026  52.1800041  75.4000044  30.3600025  51.0300016  74.7200012
  29.5000005  52.7800035  75.5700016  28.4300017  52.9900026  74.9500036
  29.6100020  52.9400015  76.8100023  31.3200021  54.1200018  73.3700037
  30.6000018  55.0400019  72.9200029  32.4700022  54.4700003  73.9800024
  32.8900027  53.6200047  74.3500042  33.1400013  55.8100033  73.9900017
  32.4300027  56.3600016  74.6000051  34.3700027  55.7200003  74.8900032
  35.1900005  55.3800011  74.2500019  34.1200018  54.9300003  75.6000042
  34.8500013  57.0100021  75.7000017  35.2800012  57.6100016  74.9100018
  35.4800010  56.6900015  76.5300035  33.7300014  57.9400015  76.3300037
  33.2800007  58.5400009  75.5300045  34.3600011  58.5800028  76.9500017
  32.6900005  57.1000004  77.0800018  33.2800007  56.6800022  77.9000044
  32.3400021  56.2800026  76.4600039  31.5200019  57.8800011  77.5700045
  30.9900022  58.2900047  76.8100023  31.0400009  57.1600008  78.0700016
  31.8300009  58.5000038  78.3100033  33.2500005  56.6100025  72.7200031
  32.9900026  57.7900028  72.7000046  33.5900021  56.0000038  71.6100025
  33.8000011  55.0200033  71.6400051  33.7300014  56.7000008  70.3300047
  34.3700027  57.5800037  70.4700041  34.3900013  55.7600021  69.2800045
  34.1700006  56.0800028  68.2500029  34.0400004  54.7300005  69.3700027
  35.9000015  55.6800032  69.4700050  36.2200022  55.7200003  70.5100012
  36.3400006  54.4100046  68.6800051  37.4200010  54.4100046  68.5800028
  36.0600019  53.4700012  69.1600037  36.0000014  54.3600035  67.6400042
  36.5400028  56.9600010  68.9200020  36.4700007  56.9100046  67.8300047
  36.0200024  57.8200006  69.3100023  37.6100016  56.8600035  69.1200018
  32.3600006  57.3100042  69.9000025  32.3200011  58.4300041  69.3400049
  31.2500024  56.7200041  70.3800011  31.3900018  55.8700037  70.9100056
  29.9100018  57.1800041  70.1200056  30.0100017  57.7100039  69.1700029
  29.0400004  55.9600019  69.8200035  28.0500007  56.2400007  69.4600010
  29.0000010  55.4300022  70.7700014  29.7800016  54.9000025  68.6000013
  29.3500018  58.3200026  71.0400057  28.2900023  58.8400030  70.9000015
  30.2000022  58.7900019  71.9100046  31.0100007  58.2200050  72.0300055
  30.0200009  59.9900007  72.7400017  29.0000010  59.9400043  73.1300020
  30.9700012  60.0200033  73.8700056  32.0100021  60.1600027  73.5400057
  30.7600021  61.0900021  74.9000025  31.2300014  60.9100008  75.8700037
  31.1200023  62.0700026  74.5800018  29.7100019  61.1600018  75.2000046
  30.8900023  58.7500048  74.5400047  30.0200009  58.4100008  74.3700027
  30.1500010  61.2500048  71.9300032  29.6500015  62.2900009  72.3300028
  30.8200026  61.1700010  70.7400036  31.2000012  60.2800035  70.4400015
  31.1900020  62.3100042  69.8400021  30.5900025  63.1400013  70.2100039
  32.6800013  62.7800035  70.1400042  33.3000016  61.9500017  69.7900057
  33.1800008  63.9300013  69.2300034  33.4400010  63.6000013  68.2300043
  32.4100018  64.7100019  69.2800045  34.1300011  64.2500019  69.6500015
  32.9600024  63.1400013  71.5900040  33.8100004  63.8100052  71.7300034
  32.0900011  63.7500048  71.8800020  33.2000017  62.3000050  72.2400045
  31.0200024  62.0800018  68.3200026  30.5800009  62.9800034  67.6100016
  31.3800025  60.8800030  67.8300047  31.5500021  60.2000046  68.5400009
  31.3400006  60.4700041  66.4400053  31.9400024  61.1800051  65.8800030
  31.9500017  59.0500021  66.3700008  31.9900012  58.7700033  65.3100014
  32.9700017  59.1600037  66.7100048  31.3400006  58.3600044  66.9400024
  29.9500012  60.5100012  65.8800030  29.7900009  60.5500031  64.6200037
  28.9000010  60.6500006  66.7000055  29.0400004  60.8000040  67.6900053
  27.5300002  60.8800030  66.1700010  27.3200011  60.0900030  65.4400015
  26.5100002  60.5600023  67.2900009  25.5200005  60.5200052  66.8300009
  26.7500019  59.1900015  67.9200029  27.7000022  59.1800022  68.4600019
  25.9600019  59.0200043  68.6500025  26.9400024  58.4000015  67.1800041
  26.5800023  61.4800024  68.3300018  25.6700015  61.7800045  68.2200050
  27.2500014  62.2400045  65.5900049  26.1300015  62.4800014  65.2600050
  28.1900024  63.1900024  65.5700016  29.0800023  62.9600048  66.0000038
  28.0200005  64.5000029  65.1000023  26.9900012  64.8100042  65.3000021
  28.8800025  65.4000044  66.0000038  28.9500022  66.3800049  65.5600023
  29.8400021  64.8700047  65.9400034  28.5200024  65.4600048  67.5100040
  28.4600019  64.4000053  67.7800035  29.7000003  66.0300016  68.2300043
  29.5900011  65.9100008  69.3100023  30.6300020  65.5600023  67.9400015
  29.8200011  67.0800018  67.9700041  27.2000003  66.2000036  67.8500032
  26.3600016  65.6700039  67.4200010  27.0900011  66.2900019  68.9400053
  27.2400022  67.2000027  67.4200010  28.2500005  64.5400047  63.5300016
  29.3400025  64.7400045  63.0000019  27.1200013  64.3600035  62.8100014
  26.3500023  63.9600039  63.3100033  27.0800018  64.4500017  61.3200045
  27.8500009  63.7300014  61.0400009  25.7100010  64.1400051  60.7100010
  25.9000015  64.3300009  59.6600008  24.9500012  64.8400021  61.0600042
  25.1800013  62.7200031  60.8900023  24.9600005  62.6200008  61.9600010
  25.9800005  62.0600033  60.5700016  23.8800001  62.3700047  60.1000023
  24.0400004  62.3400021  59.0200043  23.1300020  63.0900049  60.4100037
  23.4300017  60.9800053  60.3600025  22.5700021  60.9000015  60.9000015
  23.9000010  59.8200035  59.9600029  24.9100018  59.7000027  59.1300011
  25.3600001  60.5400038  58.7800026  25.0700021  58.7900019  58.7200022
  23.2900000  58.7300014  60.3200006  22.4900007  58.8200045  60.9300041
  23.5400009  57.8600025  59.8800039  27.6600003  65.7800055  60.7100010
  28.3300018  65.7000017  59.6400023  27.5500011  66.9500017  61.3400030
  27.1100020  67.0900011  62.2500038  28.1100011  68.1800032  60.7800007
  27.8500009  68.0700016  59.7300005  27.3700023  69.4300032  61.3800049
  27.6600003  69.4700050  62.4400043  26.3000011  69.2800045  61.2800026
  27.6200008  70.8000040  60.7200050  28.6700010  71.0600042  60.6800032
  27.1500015  71.5800047  61.3200045  27.0400023  70.8700037  59.2900038
  27.8100014  70.7300043  58.3300018  25.8000016  71.0600042  59.0200043
  29.7300005  68.2700014  60.8400011  30.3000021  69.0400028  60.0900030
  30.3200006  67.3800039  61.6900015  29.7400022  66.8600035  62.3400021
  31.7900014  67.3400021  61.8000031  32.2100019  68.1500053  61.2200022
  32.2200012  67.6200008  63.2700014  31.8500018  66.7900038  63.8800049
  33.6900020  67.8300047  63.4100008  33.9500022  68.3400011  64.3400049
  34.2500019  66.9100046  63.2600021  34.0800023  68.4500027  62.6000023
  31.5900016  68.8000011  63.6600018  31.4100003  68.8800049  64.6000051
  32.4100018  66.0700035  61.3500023  33.4200025  66.1500025  60.6900024
  31.8000007  64.9100018  61.6600037  30.9300017  65.0000048  62.1700048
  32.2800016  63.5300016  61.4400005  33.3200026  63.6100054  61.1500025
  32.3000026  62.7000046  62.7300024  32.8000021  61.7500019  62.5300026
  31.2500024  62.5100040  62.9600048  33.0700016  63.4400034  63.8200045
  32.3000026  64.2000008  64.7100019  31.2400007  64.3200016  64.5700026
  32.9000020  64.9900007  65.7000017  32.2500014  65.4600048  66.4200020
  34.2700005  64.9600029  65.9200048  34.7700024  65.6900024  66.9400024
  34.1200018  66.1700010  67.4700022  35.1200008  64.2800045  64.9800014
  36.2000012  64.3100023  65.0700045  34.4900012  63.4900045  63.9700031
  35.0400019  62.9900026  63.1800032  31.4800024  62.7700043  60.3100014
  31.8900013  61.6200018  60.0300026  30.4700017  63.3500051  59.6700048
  30.2800012  64.3200016  59.8800039  29.5600009  62.7400017  58.7100029
  30.0300026  62.7200031  57.7300024  28.6400008  63.3200026  58.7300014
  29.1200018  61.3300037  59.0000010  28.3800006  61.1000013  59.9800014
  29.5100021  60.4800034  58.1000042  30.0200009  60.8900023  57.3300028
  29.1200018  59.1100025  58.0600023  28.0300021  59.0600014  58.1500006
  29.6100020  58.4600019  56.7100048  29.2400002  57.4300051  56.7200041
  30.6800008  58.6300039  56.5500021  28.9300013  59.1300011  55.4500008
  27.9600024  59.4900036  55.8200026  28.7900019  58.3300018  54.7400045
  29.6400023  60.3500032  54.8800039  30.8100009  60.1600027  54.4800043
  29.0000010  61.4400005  54.7300005  29.6100020  58.2700014  59.2300034
  29.2900014  57.0800018  59.2200041  30.4500008  58.8100004  60.1700020
  30.8100009  59.7500038  60.1900005  30.8700013  58.0500031  61.3800049
  31.0500026  57.0200014  61.0800028  32.0600009  58.7400007  61.9600010
  32.2900009  58.2100010  62.8900051  31.8600011  59.7800016  62.2400045
  33.3300018  58.7600040  61.0900021  33.1100011  59.0600014  60.0700045
  33.7500024  57.7600050  60.9600019  34.7700024  59.7600031  61.6200018
  35.4400015  58.7700033  62.8900051  36.0900021  59.3600035  63.5400009
  34.6800017  58.3000040  63.5200024  36.1000013  58.0500031  62.4100018
  29.7100019  57.9200029  62.3300028  29.7200012  56.9400024  63.0700016
  28.7200022  58.8800049  62.2700024  28.7700009  59.7700024  61.8100023
  27.4000025  58.5900021  62.8300047  27.4500012  58.4000015  63.9000034
  26.5400004  59.8200035  62.6300049  25.5300021  59.6300030  62.9500008
  26.8900013  60.6700039  63.2000017  26.4800024  59.9300051  61.5400028
  26.7900014  57.2100019  62.3200035  26.3100004  56.4600039  63.1600046
  26.9600010  56.7300034  61.0700035  27.3800015  57.3100042  60.3600025
  26.4600015  55.4600048  60.6000042  25.4900002  55.3900003  61.1000013
  26.2300014  55.4000044  59.1000032  25.9400010  54.3800020  58.8400030
  27.1600008  55.6000042  58.5800028  25.0500011  56.3700008  58.7000036
  23.9400005  56.3400030  59.2900038  25.2400017  57.2400045  57.8200006
  27.2800016  54.3200016  61.1700010  26.6800022  53.2800007  61.4600039
  28.5400009  54.4100046  61.4400005  28.9800024  55.2900028  61.2000036
  29.3200016  53.3600044  62.1200037  29.2400002  52.3900032  61.6300011
  30.8000016  53.7100029  62.2600031  31.2000012  52.8300047  62.7900028
  31.0600019  54.5200014  62.9500008  31.6200018  54.0400028  60.7200050
  28.8600016  53.1200027  63.5900021  29.0100002  52.0400047  64.1600037
  28.4600019  54.2600012  64.2100048  28.3200002  55.1200008  63.7100029
  27.9000020  54.2800045  65.5800009  28.3600020  53.4700012  66.1400032
  28.1600022  55.6100035  66.2700033  27.5000024  55.8700037  67.0900011
  28.0900002  56.4100027  65.5300045  29.8700023  55.8400011  66.9000053
  26.3900018  53.8600016  65.6500053  25.9000015  53.6100006  66.8100023
  25.7900023  53.5300016  64.4500017  26.3600016  53.7800026  63.6700010
  24.4800019  52.9300022  64.1200018  23.8200021  52.9600048  64.9800014
  23.8300014  53.7900019  63.0300045  24.1900015  53.5300016  62.0200014
  22.7900004  53.4800005  62.9800034  23.8800001  54.8600006  63.2300043
  24.7000003  51.4500046  63.8000011  23.8700008  50.8800030  63.0100012
  25.6800008  50.7900047  64.4200039  26.2700009  51.3600016  65.0100040
  26.0100007  49.3200016  64.4600010  25.2200007  48.7500000  63.9700031
  27.1800017  48.9700031  63.6800051  27.3200011  47.8900003  63.5900021
  28.0800009  49.2100000  64.2300034  27.2400022  49.6300030  62.3000050
  27.4000025  50.6900024  62.4900007  26.2700009  49.4600010  61.8400049
  28.2800007  49.0600014  61.3100052  27.9400015  48.0800009  60.9800053
  29.2600012  49.0600014  61.7800045  28.5000014  50.0300026  60.1300049
  29.2500019  49.5700026  59.4800043  28.7000012  51.0200024  60.5300045
  27.3200011  50.0600004  59.2400026  27.2800016  49.2000008  58.7200022
  26.4800024  50.2400017  59.7800016  27.3400021  50.8200026  58.5700035
  26.1700010  48.7500000  65.8600044  26.5800023  49.5200014  66.7700052
  25.7600021  47.5100040  66.1300039  25.4700017  46.9400024  65.3500032
  26.1400008  46.8300009  67.3500013  25.3400016  47.0500040  68.0500031
  26.0900021  45.3200006  67.0700026  26.3900018  44.7500038  67.9400015
  26.7100024  45.2200031  66.1800051  24.6000004  44.8000002  66.6800022
  24.2100000  45.3600025  65.8400011  23.8300014  44.7900009  67.4400043
  24.7100019  43.3200026  66.2400055  25.7700014  42.6700020  66.2200022
  23.5800004  42.7600002  65.8100033  22.6800013  43.2300043  65.8400011
  23.6500001  41.8100023  65.4900026  27.6000023  47.1700001  67.9200029
  28.5300016  47.2900009  67.1500015  27.6600003  47.2700024  69.2500019
  26.8100023  47.3600006  69.7800016  28.8500023  47.7100039  69.9400043
  28.8400006  48.7700033  69.6800041  28.7100005  47.5000000  71.3900042
  29.0600014  46.5000010  71.6000032  27.6700020  47.5300026  71.7100048
  29.3800020  48.6600018  72.1200037  28.9300013  49.6200037  71.9000053
  30.4300022  48.5800028  71.8400049  29.1800022  48.6200047  73.6700058
  28.3700013  49.4500017  74.1600037  29.7200012  47.7400017  74.3800020
  30.1800013  47.0100021  69.4400024  31.1500025  47.6900005  69.4000053
  30.2100015  45.6900024  69.0700054  29.2900014  44.5700026  69.4700050
  28.7800002  44.2500019  68.5500050  28.5200024  44.8400021  70.1900053
  30.2400017  43.4800005  69.9900055  29.7400022  42.5000000  69.9500036
  30.5700016  43.7400007  70.9900045  31.3900018  43.6600018  69.0200043
  31.1700010  42.9900026  68.1800032  32.3100019  43.4100008  69.5600033
  31.4600015  45.1300001  68.6300039  32.3200011  45.4700041  69.1900015
  31.8000007  45.1500034  67.1400023  32.8300023  44.5800018  66.7200041
  30.9500003  45.8800030  66.3400030  30.2400017  46.4500046  66.7700052
  31.0200024  45.9400034  64.8600054  31.7800021  45.2400017  64.5100021
  29.6800017  45.4900026  64.2300034  29.7800016  45.4700041  63.1500053
  28.9300013  46.2200022  64.5100021  29.1800022  44.0500021  64.5400047
  28.1500006  43.9700031  64.2000008  29.1700006  44.0000010  65.6400013
  30.1000023  42.9300022  63.9600039  30.0900006  41.7300034  64.3900013
  31.1000013  43.3100033  63.2500029  31.4800024  47.3100042  64.2300034
  31.6400003  47.5000000  63.0300045  31.6400003  48.2000017  65.1500034
  31.1800003  48.0100012  66.0300016  32.0500016  49.5600033  64.9500036
  31.3900018  49.8800039  64.1300011  31.6700006  50.4800034  66.1800051
  31.6400003  51.5200043  65.8600044  32.4300027  50.1800013  66.9000053
  30.2500010  50.2700043  66.7300034  30.3400016  49.3000031  67.2100019
  29.5400023  50.2200031  65.9100008  29.7000003  51.3700008  67.7000046
  29.8300004  52.3500013  67.2500038  30.3100014  51.3300037  68.6000013
  28.2300019  51.3400030  67.9600048  27.6200008  50.8900023  67.2900009
  27.7100015  51.4800024  69.1600037  28.2900023  51.7800045  70.2700043
  29.3000007  51.8300009  70.3300047  27.7700019  51.8900013  71.1100054
  26.4300013  51.2400007  69.1300011  25.9600019  51.1000013  68.2500029
  25.9200001  51.1500025  69.9900055  33.5200024  49.8300028  64.5000029
  33.6900020  50.7500029  63.6800051  34.5400023  49.1400003  64.9600029
  34.3000007  48.4100008  65.6200027  35.9800029  49.4100046  64.7200012
  36.1500025  50.4800034  64.6300030  36.8600011  48.9200020  65.9400034
  37.8900027  49.2800045  65.8000040  36.9100022  47.8400040  65.8600044
  36.4600015  49.4700003  67.3100042  36.6600013  50.6300020  67.6900053
  36.0000014  48.6200047  68.1900024  35.6700015  47.7600002  67.7700043
  35.7700014  48.8700008  69.1400051  36.4700007  48.7400007  63.3000040
  37.5800014  49.0800047  62.9300022  35.6200027  48.1600046  62.4600029
  34.8300028  47.7100039  62.9000044  35.8400011  47.9700041  61.0500050
  36.8700027  47.8000021  60.7500029  35.0800014  46.7100000  60.5900049
  34.0200019  46.8500042  60.8000040  35.4300022  45.8900023  61.2100029
  35.2700019  46.4200020  59.1200018  36.3300014  46.5900040  58.9200020
  34.7600007  47.2200012  58.5700035  34.8600006  44.9900007  58.6600018
  34.0900016  44.3500042  59.4300032  35.3300023  44.4400024  57.6400042
  35.4700017  49.2100000  60.2800035  36.2000012  49.7100019  59.3900013
  34.3500018  49.8000002  60.6600046  33.8700008  49.3300009  61.4100027
  33.7200022  51.0200024  60.1000023  33.7400007  50.9300041  59.0200043
  32.2400022  51.0700035  60.5600023  32.3100019  51.4400005  61.5800047
  31.7400026  50.1100016  60.5600023  31.2000012  52.3000002  59.6600008
  34.5200014  52.2400045  60.5100012  34.7800016  53.0900002  59.6700048
  35.0000024  52.4800014  61.7200041  34.6700025  51.9900036  62.5300026
  35.8200026  53.6200047  62.0900011  35.3500009  54.5400047  61.7400026
  36.1300015  53.6700010  63.6000013  36.5900016  54.6500015  63.7400007
  36.7700028  52.8100014  63.7900019  34.9800014  53.6800003  64.6000051
  33.8900018  54.6000004  64.4300032  33.9300013  55.0600004  63.4600019
  32.8900027  54.7000027  65.4000044  32.0600009  55.3500032  65.1900053
  32.9400015  53.8300037  66.4900017  32.0600009  53.7800026  67.1200037
  34.0000010  52.9100037  66.6600037  34.2100024  52.3100042  67.5400019
  35.0400019  52.8600025  65.7300043  35.8700013  52.1800041  65.8600044
  37.1900010  53.6300039  61.3900042  37.7300024  54.7000027  61.1100006
  37.7600026  52.4300003  61.1000013  37.3000026  51.6000032  61.4100027
  38.9100027  52.3300028  60.2700043  39.5800018  53.0100012  60.7800007
  39.4500017  50.9000015  60.4700041  38.8100028  50.1500034  60.0100040
  39.6000028  50.7300043  61.5400028  40.9400034  50.6200027  59.9700022
  41.5400028  51.4300013  60.4100037  41.4600039  49.2300034  60.3200006
  42.5300026  49.1300011  60.1400042  41.3400030  49.1500044  61.4100027
  40.8100033  48.4500027  59.9300051  40.9800005  50.7100010  58.4600019
  40.1600027  50.2000046  57.9800034  40.9500027  51.7300034  58.0400038
  41.9099998  50.2600002  58.1100035  38.7600017  52.8700018  58.8800049
  39.5500016  53.6900043  58.4700012  37.6600027  52.5300026  58.2000017
  37.0500016  51.8100023  58.5700035  37.2200012  53.0600023  56.8600035
  38.0600023  52.7500010  56.2500048  35.9700012  52.2800016  56.4200020
  35.0700021  52.6800013  56.8800020  36.0300016  51.2600040  56.7800045
  35.7000017  52.0800018  54.9000025  36.4200020  51.3500023  54.5300007
  35.9400010  52.9900026  54.3500042  34.3000007  51.5900040  54.6500015
  34.0200019  50.4000044  54.6800041  33.3400011  52.5000048  54.6200037
  33.6100006  53.4700012  54.5000029  32.3700023  52.2300005  54.5300007
  37.0100021  54.5800018  56.7700005  36.7500019  55.0900030  55.7100010
  37.0100021  55.2600050  57.9000044  37.2300029  54.7800016  58.7600040
  36.7200017  56.7300034  57.9800034  36.3900018  57.0100021  56.9800043
  35.5800009  57.0500040  58.9600039  35.4900026  58.1300020  59.0300035
  35.7400012  56.6000032  59.9400043  34.3200016  56.4600039  58.3400011
  33.9500022  55.1800013  58.2000017  34.2800021  54.3400049  58.6600018
  32.9000020  55.0600004  57.3500013  32.4300027  54.1100025  57.1600008
  32.4200010  56.3000011  57.1300030  33.3200026  57.1700048  57.7700043
  33.3100009  58.2400036  57.6500034  38.0600023  57.5000048  58.2200050
  38.0600023  58.6700010  57.9600048  39.1600013  56.8200016  58.6100006
  39.0600014  55.8700037  58.9300013  40.5500031  57.3200035  58.6700010
  40.6900024  58.1000042  59.4300032  41.5799999  56.2100029  58.8200045
  42.5600004  56.5800047  58.5300016  41.2400007  55.4400015  58.1400013
  41.6000032  55.6600046  60.2900028  40.6400013  55.3200006  60.6500006
  41.9400024  56.5000010  60.8900023  42.5900030  54.4900036  60.3000021
  43.5700035  54.8300028  59.9400043  42.3800039  53.6400032  59.6700048
  42.6500034  54.0900040  61.8000031  41.8400002  53.4100008  62.0600033
  42.5699997  55.0000048  62.3900032  43.9700031  53.4700012  62.1200037
  44.1200018  52.5900030  61.6500044  44.7700024  54.0600014  61.9600010
  43.9900017  53.2500029  63.1100035  40.8500004  58.0900049  57.3700047
  40.4900026  57.5600004  56.3400030  41.5500021  59.2300034  57.3700047
  41.7700005  59.6100044  58.2800007  42.1900034  59.9900007  56.2500048
  42.0300007  59.3200016  55.4000044  41.3600016  61.2500048  56.0200024
  41.6600037  61.9800043  56.7600012  40.3200006  60.9600019  56.1600018
  41.5200043  61.9400024  54.6600008  42.6100016  61.7900038  53.9900017
  40.6000042  62.6100016  54.1700029  43.6700010  60.1200008  56.4800024
  44.1200018  60.7100010  57.4400043  44.4800043  59.7200012  55.4700041
  44.0799999  59.4100046  54.6000004  45.9100008  59.8500013  55.4800034
  46.2000036  59.4300032  56.4400005  46.4400005  58.9900017  54.2500019
  47.5300026  58.9800024  54.1800022  46.1199999  59.4100046  53.3000040
  45.9400034  57.5400019  54.3700027  46.7300034  56.7900038  54.9800014
  44.8100042  57.2000027  54.0200043  46.3600016  61.2900019  55.3000021
  47.5100040  61.5300035  55.5800009  45.5000019  62.2600031  54.8900032
  44.5600033  62.0300007  54.5800018  45.7800007  63.6900043  54.6700048
  46.7000008  63.9700031  55.1800013  46.0200024  63.8600016  53.1100035
  46.1800003  64.9100018  52.8700018  45.1600027  63.4600019  52.5800037
  47.2900009  63.1500053  52.6300049  48.4100008  63.6400032  52.7200031
  47.1900034  61.9600010  52.1000004  46.3300037  61.4500046  52.1300030
  48.0400038  61.4700031  51.8700027  44.5000029  64.4600010  55.1700020
  43.7800026  64.9300051  54.3400049  44.2400026  64.5300007  56.4600039
  45.0200033  64.0300035  57.5600004  46.0000038  64.4300032  57.3100042
  45.0000000  62.9500008  57.6500034  44.4500017  64.5600033  58.8400030
  44.7600031  65.6100035  58.9200020  44.6000004  63.9800024  59.7600031
  43.0100012  64.5600033  58.4500027  42.5400019  65.2200031  59.1800022
  42.5500011  63.5800028  58.6400032  42.9800034  65.0400019  56.9700050
  42.1600008  64.5900011  56.4100027  42.9200029  66.5500021  56.8400049
  43.9300013  67.2500038  56.9500017  41.7300034  67.1300030  56.5700006
  40.9400034  66.5300035  56.3400030  41.5700006  68.6100054  56.3800049
  42.4500036  69.0200043  55.8800030  40.3400040  68.9800024  55.5800009
  39.4900012  68.4800053  56.0400009  40.3200006  68.5400009  54.5800018
  40.0600004  70.4700041  55.4500008  40.9500027  71.3300037  55.4600048
  38.9100027  70.9200048  55.0500011  38.1500030  70.2800035  54.9000025
  38.8100028  71.9000053  54.8300028  41.5600014  69.3600035  57.7400017
  40.5600023  69.2700052  58.4800005  42.6300001  70.1200056  58.0500031
  43.4000015  69.9800014  57.4200010  42.9400015  70.7000017  59.3400049
  42.0200014  70.8500051  59.9100018  43.8400030  69.7600031  60.1200008
  44.3700027  70.2700043  60.9300041  44.6200037  69.4500017  59.4300032
  43.2300043  68.4600019  60.7100010  42.9300022  67.7800035  59.9100018
  44.2500019  67.6100016  61.4600039  44.8500013  68.2600021  62.1100044
  43.7700033  66.8000031  62.0200014  44.9900007  67.2500038  60.7400036
  42.1099997  68.7700033  61.6500044  42.3500013  69.4500017  62.4700022
  41.2700033  69.1600037  61.0800028  41.8000031  67.8200054  62.0800018
  43.5600042  72.2200012  59.2700005  44.2200041  72.5500011  58.2600021
  43.5100031  73.0000019  60.3600025  42.8700018  72.6900053  61.7000008
  43.5200024  72.0400047  62.2700024  41.9600010  72.1100044  61.5300035
  42.6100016  73.9800024  62.4500036  42.5800037  73.8100052  63.5200024
  41.6600037  74.4000053  62.0800018  43.8100004  74.8300028  61.9800043
  44.6500015  74.7900057  62.6800013  43.4700012  75.8600044  61.9700050
  44.0300035  74.3000031  60.5300045  43.5100031  74.9300051  59.8100042
  45.5400038  74.5300055  60.2200031  46.2300014  73.6000013  59.8700047
  45.9900045  75.8300018  60.1700020  45.3700018  76.6100025  60.2600050
  47.4100018  76.1500025  60.0300026  47.7800035  75.6700039  59.1200018
  47.6100016  77.6400042  60.0200033  47.5800037  77.9900026  61.0500050
  46.8000031  78.0000019  59.3800020  48.9700031  78.0300045  59.3300009
  49.0100002  77.5900030  58.3300018  49.8400021  77.6700020  59.8800039
  49.0300035  79.5300055  59.2300034  48.6700010  79.9800014  60.1600027
  48.2900000  79.9300051  58.5500050  50.4000044  80.0699997  58.9300013
  50.6100035  80.3999996  58.0000019  51.4200020  80.3800011  59.7900009
  51.3200045  80.1300049  61.0600042  50.5100012  79.6100044  61.3800049
  51.9700003  80.4800034  61.7500019  52.4500036  81.0900021  59.4200039
  52.6000023  81.3899994  58.4700012  53.0600023  81.3500023  60.1800013
  48.2500029  75.4600048  61.0600042  47.8500032  75.5300045  62.2200012
  49.3800020  74.7900057  60.7200050  49.5800018  74.8400021  59.7300005
  50.3500032  74.2300034  61.7000008  49.8700047  73.5700035  62.4200010
  51.5200043  73.3900023  61.0300016  52.2900009  73.2800055  61.8000031
  52.0300007  73.9700031  60.2600050  51.2200022  71.9600058  60.4600048
  50.5900002  72.1100044  59.5900011  52.4800014  71.2300014  60.1400042
  53.2500029  71.4300013  60.8700037  52.3200035  70.1500034  60.1500034
  52.7800035  71.4800024  59.1100025  50.5500031  71.1000013  61.5600014
  49.5500040  71.4500046  61.8100023  50.4600000  70.0500011  61.2800026
  51.1600018  71.0800028  62.4800014  50.9400034  75.3800058  62.4900007
  51.3000011  76.3200045  61.7700052  51.0800028  75.3500032  63.8400030
  50.6400013  74.5400047  64.2500019  51.7700005  76.3700056  64.6800041
  51.5900040  77.3300028  64.1900015  51.1500025  76.3800049  66.0900021
  51.1500025  75.3600025  66.4800024  51.9400024  77.2900057  67.0500040
  52.0700026  78.2900047  66.6300011  51.3800001  77.3600054  68.0000019
  52.9300022  76.9100046  67.2900009  49.7000027  76.7600060  66.2000036
  49.1200018  76.3900042  65.3600025  49.2800045  76.4300013  67.1500015
  49.6900034  77.8600025  66.1400032  53.2800007  76.3300037  64.6000051
  53.8700008  75.2100039  64.6300030  53.9400005  77.4700022  64.2800045
  53.3500004  78.2600021  64.0900040  55.4400015  77.5900030  64.2800045
  55.8500004  76.6100025  64.0500021  55.8400011  78.6100054  63.1500053
  56.9000006  78.7800026  63.2700014  55.2400017  79.5100021  63.1900024
  55.6400013  77.9700041  61.7800045  55.7200003  76.8900013  61.9000006
  56.4200020  78.3700037  61.1300039  54.3200016  78.3700037  61.1200047
  54.0700006  79.3800020  61.4400005  53.6000013  77.6700020  61.5500021
  54.3800020  78.2200050  59.5600033  55.2600050  78.4500027  59.1200018
  53.4300041  77.7200031  58.8700008  52.3000002  77.4400043  59.4200039
  52.1900034  77.3400021  60.4200029  51.6100025  77.0000029  58.8200045
  53.4900045  77.6100016  57.5900030  54.3600035  77.8300047  57.1300030
  52.6500034  77.4300051  57.0400047  56.0300016  77.9600048  65.6200027
  55.3500032  78.5600042  66.4500046  57.2700024  77.4900055  66.0000038
  58.1200027  76.4700031  65.3900051  58.8100004  76.9400024  64.6900034
  57.5700045  75.7000017  64.8600054  58.9500046  75.8200026  66.4700031
  59.8200035  75.3200054  66.0700035  58.2500029  75.2100039  67.0500040
  59.2600012  77.1000051  67.2700024  60.1000023  77.6000023  66.7800045
  59.5500040  76.8500042  68.2900047  58.0000019  78.0600023  67.1900034
  57.3700047  78.0100060  68.0800009  58.4100008  79.5100021  67.0800018
  58.6800051  79.9900055  65.9600019  58.6900043  80.1600075  68.2300043
  58.6400032  79.6700048  69.1100025  59.2300034  81.4700031  68.2900047
  59.6800041  81.6700077  67.3200035  58.1900024  82.4700069  68.6500025
  58.6400032  83.4300041  68.9000034  57.6900005  82.2500038  69.6000051
  57.1700048  82.7800083  67.5500011  56.8400049  81.8600082  67.0800018
  57.6200008  83.4899998  66.8600035  55.9100008  83.4100056  68.1200027
  54.9400043  82.6000023  68.3100033  55.8600044  84.5900059  68.4400034
  60.4700041  81.4900017  69.2300034  60.4500008  80.9800053  70.3300047
  61.5100050  82.1700001  68.8500023  61.4200020  82.4300003  67.8700018
  62.8400040  82.1100044  69.5100021  63.0600023  81.0400009  69.5500040
  63.8800049  82.7800083  68.6300039  64.7700024  82.7700043  69.2600012
  64.2100048  81.9900036  67.4100018  63.3300018  81.5000057  66.9800043
  64.7300053  82.6300049  66.6900015  64.8900032  81.2000084  67.7000046
  63.6900043  84.3400002  68.3800030  64.5700026  84.7900009  67.9100037
  62.8600025  84.5000076  67.7000046  63.5200024  84.8300076  69.3300056
  62.8300047  82.6700020  70.9400034  63.7200022  82.3400021  71.7100048
  61.8400049  83.5000038  71.3600016  61.1100006  83.8400078  70.7500029
  61.7300034  83.9400005  72.7700043  62.7200031  84.1700077  73.1400013
  60.9200048  85.2700043  72.8700018  61.6800022  85.9700012  72.5500011
  60.6600046  85.5400085  73.8900042  59.6900034  85.4600048  71.9600058
  59.1200018  86.5500069  72.0200014  59.3600035  84.6700001  71.0700035
  60.9900045  82.9400063  73.7200022  61.0400009  82.9600048  74.9400043
  60.3000021  82.0100021  73.0400038  60.1600027  82.1600056  72.0500040
  59.3400049  81.0599995  73.7000036  59.5400047  80.9700012  74.7700024
  57.8600025  81.6400051  73.7000036  57.1200037  80.9200001  74.0500021
  57.8200006  82.8800011  74.5000029  58.6100006  83.5599995  74.1800022
  56.9100046  83.4700012  74.4100046  58.0200005  82.5100040  75.5100060
  57.5300026  82.1200085  72.2800016  57.7900028  81.2700081  71.6500044
  56.5300035  82.5500011  72.1700048  58.1600046  82.9699993  72.0300055
  59.4900036  79.5800018  73.3300018  58.6100006  78.7400055  73.5500050
  60.6400013  79.2400026  72.8000021  61.4200020  79.8800039  72.8700018
  60.8000040  77.8500032  72.2300053  59.7900009  77.4900055  72.0400047
  61.6400051  77.9600048  70.9200048  60.9900045  78.4300041  70.1800013
  61.8100023  76.9900036  70.4700041  62.9300022  78.7800026  71.0600042
  63.4000015  78.3400059  71.9500017  62.7000046  79.8100042  71.3000011
  64.1700029  78.8200045  69.6900034  65.5800009  79.5800018  70.6000042
  66.2900019  79.7800016  69.8100042  65.3600025  80.5600071  71.0200024
  65.9700012  78.9200020  71.3700056  61.5100050  76.9400024  73.2100058
  61.2300014  75.7100058  73.2900047  62.3100042  77.5300026  74.0200043
  62.5800037  78.4700060  73.7900019  62.8700018  77.0000029  75.2200031
  62.9700041  75.9400034  75.0100040  64.3100023  77.5500059  75.3400040
  64.6300030  77.1900034  76.3100052  64.2800045  78.6400032  75.4600048
  65.4600048  76.7600060  74.0700054  62.0200014  77.0800018  76.4800024
  62.4700022  76.5200043  77.4300051  60.8900023  77.7800035  76.6300058
  60.5900049  78.3400059  75.8500051  60.4000044  78.1800032  77.9900026
  61.1700010  78.4400034  78.7000036  59.7300005  79.5300055  77.7600050
  59.1500044  79.7000027  78.6700058  60.7300043  80.6300068  77.5700045
  61.0500050  80.5700016  76.5300035  60.1900005  81.5500069  77.8200054
  61.5400028  80.4900074  78.2800055  58.8300037  79.6000051  76.7000055
  58.0400038  80.1000023  76.9000053  59.4200039  77.1600056  78.6400032
  59.0900040  77.3900032  79.7900057  58.9500046  76.1100054  78.0400038
  59.1500044  76.0100031  77.0500040  57.8100014  75.3600025  78.6000061
  57.6300049  75.6400013  79.6400023  56.5600014  75.7100058  77.7300024
  55.6500006  75.1700020  78.0000019  56.3600016  76.7800045  77.7700043
  56.7900038  75.5600023  76.6800022  57.9100037  73.8300037  78.7300014
  57.2800016  73.2200050  79.5700026  58.7700033  73.2400036  77.8700018
  59.2100048  73.8200045  77.1700048  59.1100025  71.8100023  77.8500032
  58.2200050  71.2200022  77.6300049  60.1400042  71.5700054  76.7000055
  59.9100018  72.2600031  75.8900023  60.0600052  70.5400038  76.3500023
  61.4900017  71.7900038  77.1400023  62.0900011  73.0300045  77.0900059
  61.4300013  73.7600040  76.6300058  63.4100008  73.2800055  77.3900032
  63.8300037  74.2700052  77.2500038  64.1300011  72.2600031  78.0500031
  65.1400042  72.2800016  78.4300041  63.4600019  70.9900045  78.2800055
  63.9800024  70.2800035  78.9000034  62.2200012  70.7600021  77.7400017
  61.9100046  69.7300053  77.8000021  59.5700026  71.3300037  79.2700052
  59.5800018  70.1300049  79.5500040  59.8600006  72.2100019  80.2200031
  59.8200035  73.1800032  79.9700022  60.0700045  71.8900013  81.6499996
  59.9800014  70.8400011  81.9000053  61.5300035  72.4100018  81.9200039
  62.2600031  71.7800045  81.4100075  61.8200016  72.2800016  82.9600048
  61.7300034  73.8500023  81.6400051  61.2900019  74.9300051  82.4300003
  61.6200018  76.0300016  81.6800022  61.1500025  77.0000029  81.8100071
  62.2500038  75.6400013  80.5300045  62.3700047  76.2300014  79.7100019
  62.2400045  74.3000031  80.4600048  62.3900032  73.6800051  79.5900059
  59.0900040  72.4600029  82.6700020  59.3100023  72.2400045  83.8300037
  58.1500006  73.2400036  82.2700024  57.9600048  73.1500053  81.2800026
  57.2500038  74.1000032  83.1000042  57.4200010  73.8400030  84.1400051
  57.5100040  75.5400038  82.7200031  56.7500019  75.7300043  81.9600010
  58.5100031  75.5800056  82.2900009  57.4400043  76.4900017  83.9600086
  57.6700020  75.9600019  85.0500011  57.2500038  77.7100039  83.7600040
  55.7200003  73.8200045  82.8500080  54.8900032  73.9900017  83.7800026
  55.3800011  73.3900023  81.6600037  56.1400032  73.3400011  80.9899998
  54.0700006  72.9800034  81.2700081  53.3200026  73.3700037  81.9600010
  53.8000011  73.6300039  79.9800014  52.9100037  73.2300043  79.5100021
  54.6700048  73.4400034  79.3600035  53.6300039  75.1900053  80.1700020
  54.5200014  75.9700060  80.5300045  52.4300003  75.8000040  79.9100018
  51.6200018  75.2200031  79.7200060  52.3300028  76.8100023  80.0000000
  54.0500021  71.4900017  81.1400032  53.4900045  70.8500051  80.2200031
  54.7000027  70.7500029  82.0900059  54.8700047  71.2500048  82.9500008
  55.2700043  69.3900013  81.9000053  55.8700037  69.4200039  80.9899998
  56.1700010  69.0200043  83.0600071  56.5700006  68.0100012  82.9400063
  55.5700016  69.0500021  83.9600086  57.3900032  69.9500036  83.1599998
  57.0700026  70.8700037  83.6700058  57.9100037  70.2400017  82.2500038
  58.4400034  69.1800022  83.9200020  58.2200050  69.0300035  85.1700020
  59.4500017  68.6900043  83.4300041  54.1600037  68.3300018  81.7500019
  54.4100046  67.2900009  81.1500072  52.9000044  68.5500050  82.2200012
  52.7000046  69.4300032  82.6900005  51.8300009  67.6100016  82.0499992
  52.2600031  66.6400051  81.8100071  50.9400034  67.3900032  83.3400059
  50.2900028  66.5400028  83.1400013  50.2500010  68.2400036  83.4000015
  51.6800022  67.0200014  84.6600056  50.9700012  66.6700029  85.4200077
  52.2000027  67.8900051  85.0500011  52.7900028  66.0000038  84.4900036
  52.6400042  65.0600052  83.7600040  53.8700008  66.1500025  85.0900078
  50.9800005  67.8400040  80.7999992  50.0100040  67.1200037  80.6200027
  51.2000036  68.9400053  80.0600052  51.8900013  69.5700026  80.4600048
  50.4600000  69.3600035  78.7500048  49.6500015  68.6700010  78.5400057
  49.7100019  70.7000017  79.0000057  49.3900013  71.2200022  78.1000042
  48.5600042  70.5500031  79.8700047  47.9600000  69.7000027  79.5600033
  48.9300013  70.4700041  80.9000015  48.0200005  71.4800024  79.7000027
  50.5500031  71.6200018  79.6900034  50.6700039  72.2900057  79.0200043
  51.2300014  69.4900036  77.4700022  50.7600021  69.3900013  76.3600016
  52.5500011  69.7300053  77.6100016  52.9300022  69.7100019  78.5500050
  53.4800005  70.0300026  76.5400028  53.1100035  70.7800055  75.8400059
  54.7300005  70.5700016  77.2200060  55.0600004  70.1000023  78.1400061
  54.4400024  71.5600014  77.6000023  55.9300041  70.7000017  76.2300014
  56.0700035  71.8800020  75.5200052  55.3900003  72.7000046  75.7100058
  57.0900011  72.0100021  74.5300055  57.1400023  72.8800058  73.8900042
  57.9900026  70.9800053  74.3100023  58.8400030  71.0700035  73.6400032
  57.9300022  69.8100042  75.1200056  58.6400032  69.0200043  75.0000048
  56.9000006  69.6900034  76.1100054  56.7000008  68.8100052  76.6900015
  53.8000011  68.8100052  75.6900024  53.7700033  68.8400030  74.4700050
  53.9900017  67.6200008  76.3100052  53.8700008  67.4500036  77.2900057
  54.1900015  66.3600016  75.6100035  54.8900032  66.5900040  74.8100042
  54.7800016  65.4000044  76.7000055  54.0100002  64.9400043  77.3300028
  55.4300022  65.9700012  77.3600054  55.6900024  64.1300011  76.1700058
  56.4000034  63.7900019  76.9200039  54.7400045  62.9700041  75.8300018
  55.3300047  62.0700026  75.6200027  54.1300011  62.6400042  76.6700029
  54.0900040  63.2800007  75.0200033  56.5200043  64.5400047  75.0400019
  57.0700026  63.6600018  74.7100019  55.9700012  64.9000025  74.1600037
  57.2200012  65.3500032  75.2600050  52.8600025  65.8700037  75.0100040
  52.8200006  65.6000042  73.7700033  51.8600035  65.8800030  75.8800030
  52.0800018  66.1800051  76.8100023  50.4100037  65.4600048  75.6700039
  50.3600025  64.4200039  75.3600025  49.6900034  65.5600023  77.0200014
  49.5200014  66.6100025  77.2500038  50.4300022  65.2500010  77.7700043
  48.2800007  64.9200010  77.2600031  48.3000040  63.8800049  76.9800043
  47.5200033  65.5000019  76.7200041  47.8600025  65.0600052  78.7800026
  46.8700027  64.6400023  78.9100027  47.8200006  66.1000013  79.0900040
  48.7800026  64.4900036  79.9000025  49.7500038  64.9600029  79.7600031
  48.7800026  63.4100008  79.7700024  48.3900023  64.8200035  81.2800026
  49.0400028  64.3900013  81.9200039  48.3500004  65.8200026  81.4300060
  47.4600029  64.4500017  81.4300060  49.6700001  66.2200022  74.5800018
  48.8400030  65.7200050  73.8400030  50.1000023  67.5100040  74.3500042
  50.6800032  68.0000019  75.0100040  49.6600008  68.2300043  73.1800032
  48.6100006  67.9900026  73.0000019  49.7100019  69.8300028  73.3800030
  50.6800032  70.2200031  73.6800051  49.1300011  69.8700047  74.3000031
  49.1100025  70.4700041  72.1700048  48.3000040  69.8400021  71.7900038
  49.8700047  70.5200052  71.4000034  48.6600018  71.8700027  72.4900055
  49.5300007  72.3300028  72.9600048  47.8600025  71.8700027  73.2300043
  48.2100010  72.5500011  71.2000036  47.5300026  71.8700027  70.6900024
  49.0900040  72.7700043  70.5800056  47.5500011  73.8400030  71.4300013
  47.4700022  74.2800045  70.5300045  46.6100025  73.7000036  71.7800045
  48.0400038  74.3900013  72.1200037  50.2900028  67.7300024  71.8600035
  49.5500040  67.4900055  70.9200048  51.6400003  67.4500036  71.8700027
  52.2400045  67.7000046  72.6500034  52.3400021  66.8400049  70.6700039
  51.9700003  67.4000025  69.8100042  53.8800049  66.9200039  70.7500029
  54.2700005  66.1200047  71.3900042  54.1600037  67.8000021  71.3300037
  54.6600008  66.8300009  69.4700050  54.7800016  67.9700041  68.6800051
  54.3700027  68.9000034  69.0200043  55.5700016  67.9700041  67.5200033
  55.6800032  68.8300037  66.8700027  56.2400007  66.7700052  67.0800018
  57.1700048  66.7400026  66.0600042  57.4200010  67.5900030  65.7000017
  56.0000038  65.5400038  67.8300047  56.4600039  64.5900011  67.6200008
  55.2400017  65.6100035  69.0600014  55.0300026  64.7200012  69.6300030
  51.9100046  65.3900051  70.4000044  51.9700003  65.0000048  69.2400026
  51.5000010  64.5500040  71.3500023  51.5200043  64.8600054  72.3100042
  50.9700012  63.1800032  70.9700012  51.7000008  62.6200008  70.3700018
  50.6100035  62.4100018  72.2700024  49.9800014  61.5400028  72.0500040
  50.2600002  63.1400013  72.9800034  51.9000006  61.8600035  72.8800058
  52.6500034  62.6500034  72.9300022  51.4700031  61.4500046  74.3300056
  51.1100006  62.2900009  74.9000025  50.5600023  60.8600044  74.2600012
  52.2700024  60.9800053  74.9100018  52.4800014  60.5100012  72.3300028
  53.4500027  60.3900051  72.8000021  51.7500019  59.7600031  72.6400042
  52.5200033  60.6800032  71.2500048  49.6800041  63.3600044  70.1800013
  49.4600010  62.5400019  69.3000031  48.8000011  64.3500042  70.5900049
  49.1300011  64.9600029  71.3200045  47.6600027  64.7400045  69.8400021
  47.2000027  63.7600040  69.7000027  46.7800045  65.7500029  70.6400013
  47.3800039  66.4700031  71.2200022  46.1800003  65.1400042  71.3200045
  45.8600044  66.5500021  69.7800016  44.6600008  66.0000038  69.4500017
  44.3500042  65.0400019  69.8200035  43.7300014  66.7900038  68.7400055
  42.7900028  66.3000011  68.5700035  43.9900017  68.1700039  68.6000013
  43.0000019  69.0000010  68.2500029  43.2900000  69.9200010  68.2900047
  45.2400017  68.7300014  68.9800024  45.4500008  69.7700024  68.8200045
  46.1900043  67.9000044  69.5700026  47.1400023  68.2500029  69.9600029
  47.9700041  65.2500010  68.4300041  47.2500038  64.8300028  67.5100040
  48.9600039  66.1600018  68.2700014  49.3700027  66.4800024  69.1300011
  49.0900040  66.7900038  66.9400024  48.1900024  67.3700047  66.7600012
  50.2100039  67.8500032  67.0700026  50.5100012  68.1800032  66.0800028
  51.1400032  67.4700022  67.4900055  49.8300028  69.1300011  67.8800011
  50.7700014  69.6200037  68.1100035  49.4400024  68.9500046  68.8800049
  48.8500023  70.0600052  67.1700048  49.0000010  71.2900019  67.2100019
  48.1500006  69.5800018  66.2600040  49.5000029  65.7700014  65.8000040
  49.1400003  65.8800030  64.6200037  50.2900028  64.7600031  66.2100029
  50.6700039  64.7200012  67.1400023  50.9000015  63.7600040  65.3600025
  51.1400032  64.0900040  64.3500042  52.1700048  63.2200050  65.8700037
  51.9800043  62.8100014  66.8600035  52.7700043  62.0300007  65.0200033
  53.0200005  62.3000050  64.0000010  53.6100006  61.6400051  65.5700016
  51.9700003  61.2800026  64.9400043  53.3000040  64.2600012  66.0400009
  54.2400026  63.8200045  66.4000034  52.9700041  64.8500013  66.8900013
  53.3800030  65.1800013  64.7600031  52.4600029  65.7000017  64.4800043
  54.0400028  66.0300016  64.9300051  53.7300014  64.5500040  63.9400053
  49.8800039  62.5200033  65.2100039  49.5800018  62.1400023  64.1000032
  49.2800045  62.1000051  66.2600040  49.5200014  62.3200035  67.2300053
  48.2800007  61.0600042  66.1800051  48.6000013  60.0800037  65.8100033
  47.7100039  60.7200050  67.5500011  48.5000038  60.3700018  68.2100010
  47.2200012  61.5600014  68.0300045  46.9300032  59.9800014  67.4600029
  47.0500040  61.4600039  65.3100014  46.4900017  60.5100012  64.7100019
  46.7200041  62.8000021  65.3100014  47.2600031  63.4000015  65.9300041
  45.5300045  63.2700014  64.6300030  44.6700001  62.6100016  64.7900009
  44.9900007  64.5700026  65.2100039  45.2100039  64.6100044  66.2800026
  43.9200020  64.6600008  65.0000048  45.6100035  65.8500051  64.5800018
  45.3299999  65.9600019  63.5400009  46.6900015  65.7900047  64.6700048
  45.1700020  67.1600056  65.2900028  45.4600000  68.0200052  64.6900034
  45.6400013  67.1500015  66.2600040  43.6600018  67.2100019  65.3200054
  43.1100035  66.3700008  65.2500010  42.8900003  68.3300018  65.1400042
  43.4400034  69.4900036  65.0500011  44.4200039  69.6500015  65.2600050
  42.7800035  70.2400017  64.9800014  41.6100025  68.1800032  65.1200008
  41.2500000  67.2500038  65.2000046  41.0300016  69.0100050  65.1100016
  45.7300043  63.3900023  63.1200027  44.8800039  63.1200027  62.3300028
  47.0100021  63.6100054  62.7300024  47.7400017  63.6400032  63.4200048
  47.5700045  63.5800028  61.3200045  46.7900038  63.8600016  60.6100035
  48.5800028  64.7500038  61.3100052  49.2100000  64.5700026  60.4300022
  49.2500019  64.7100019  62.1700048  47.9500008  66.0900021  61.1900043
  47.3000002  66.2600040  62.0500040  47.3200035  66.2000036  60.3100014
  49.0000010  67.1900034  61.2300014  49.5000029  67.2000027  60.2600050
  49.7100019  66.9800043  62.0300007  48.2200003  68.4800053  61.4500046
  48.2800007  69.0900040  60.6400013  47.7400017  68.9900017  62.5600052
  47.8800011  68.3500051  63.7000036  48.4900045  67.5500011  63.7100029
  47.7300024  68.8700056  64.5600033  47.0600033  70.1500034  62.5500011
  46.9099998  70.5800056  61.6500044  46.7000008  70.5300045  63.4100008
  48.1900024  62.2700024  60.7900047  48.4100008  62.2300053  59.5900011
  48.5300016  61.2900019  61.5600014  48.3600044  61.4600039  62.5500011
  49.1500044  60.0100040  61.2100029  49.1600037  59.9700022  60.1200008
  50.6300020  60.1400042  61.5900040  51.2100029  59.2800045  61.2700033
  50.7800007  60.3400040  62.6600027  51.3000011  61.2800026  60.9000015
  51.8400002  61.3100052  59.6500015  52.1300030  62.6300049  59.4000006
  52.6200008  63.0500031  58.5300016  51.8200016  63.3700037  60.4900026
  51.9500017  64.3600035  60.5800009  51.2400007  62.5500011  61.4100027
  50.7100010  62.8600025  62.3000050  48.3300018  58.8200045  61.7200041
  48.7800026  58.1400013  62.6300049  47.1000004  58.6400032  61.1100006
  46.3300037  59.4800043  60.1600027  47.0300007  59.8100042  59.3800020
  45.9500027  60.3600025  60.6800032  45.2600002  58.6100006  59.6800041
  45.7200003  57.9400015  58.9500046  44.3600035  59.1200018  59.3100023
  44.8400021  57.7800035  60.8400011  44.5000029  56.8200016  60.4500008
  44.0500021  58.2300043  61.4500046  46.1400032  57.6900005  61.6700029
  45.9800005  58.0000019  62.7100039  46.5500021  56.2400007  61.6700029
  46.0200024  55.3900003  62.3500013  47.7200031  55.8700037  61.0400009
  48.2400036  56.5700006  60.5200052  48.2800007  54.5500040  61.0100031
  47.7500010  53.8500023  61.6500044  48.2700014  54.0100002  59.5700026
  48.6900043  53.0100012  59.5500040  48.8700008  54.5900011  58.8800049
  46.8300009  53.9500046  58.9300013  46.3400030  55.0700045  58.2000017
  47.0300007  55.8900023  58.1400013  45.0800037  55.0800037  57.5000048
  44.7500038  55.9300041  56.9300032  44.3700027  53.8800049  57.5000048
  43.2700014  53.7700033  56.6800022  43.0100012  54.6000004  56.2600040
  44.8500013  52.7100039  58.1900024  44.3000031  51.7900038  58.1300020
  46.0200024  52.7700043  58.9300013  46.4000034  51.9000006  59.4500017
  49.7500038  54.5100021  61.5700006  50.3700018  53.4500027  61.5700006
  50.3000021  55.6500006  62.0300007  49.7500038  56.5000010  61.9900036
  51.6300011  55.6000042  62.6900053  52.3400021  55.3600025  61.9100046
  51.8500042  57.0100021  63.2800007  51.2500048  57.3200035  64.1200018
  51.7200041  57.7400017  62.4800014  53.2900047  57.3200035  63.6900043
  53.9900017  56.5000010  64.5500040  53.5200024  55.6200027  64.9900007
  55.3600025  56.6900015  64.7600031  55.8600044  55.9600019  65.3900051
  56.0300016  57.7600050  64.2400026  57.0300007  57.9500008  64.5800018
  55.3400040  58.6200047  63.4100008  55.8500004  59.4900036  63.0100012
  54.0400028  58.3500051  63.0400038  53.4200048  59.0400028  62.4800014
  51.6600037  54.5200014  63.7800026  50.7200003  54.5800018  64.5900011
  52.6800013  53.6900043  63.8100052  53.4000015  53.8400030  63.1100035
  52.7500010  52.5100040  64.6600008  51.8700027  51.8800020  64.5300007
  54.0300035  51.7600012  64.1800022  54.9100018  52.4100018  64.1900015
  53.8600016  51.5600014  63.1300020  54.2700005  50.4900026  64.9000025
  53.6100006  49.3100023  64.5000029  52.9100037  49.2700005  63.6800051
  53.9400005  48.1400013  65.1700020  53.4000015  47.2700024  64.8400021
  54.9600029  48.1200027  66.1600018  55.2400017  47.0300007  66.8700027
  54.7900009  46.2500000  66.5500021  55.5900049  49.2600012  66.5300035
  56.3600016  49.1900015  67.2800016  55.2000046  50.4600000  65.9300041
  55.6900024  51.3700008  66.1900043  52.8600025  52.9700041  66.0700035
  53.8200045  53.6500025  66.5200043  51.8100023  52.7300024  66.8500042
  50.9700012  52.2800016  66.5000010  51.5600014  53.5100031  68.1100035
  51.6300011  54.5200014  67.7100039  50.1900005  53.1600046  68.7100029
  50.0300026  54.0300035  69.3500042  49.4900036  53.3500004  67.9100037
  50.1300001  52.2500038  69.3100023  52.7200031  53.4900045  69.1400051
  52.9900026  54.5800018  69.7100019  53.4400034  52.4000025  69.3900013
  53.0600023  50.9600019  69.1800022  53.7900019  50.5600023  68.4600019
  52.0900011  50.9500027  68.6900043  53.3500004  50.2400017  70.5500031
  53.5200024  49.1600037  70.6200027  52.6000023  50.4800034  71.3000011
  54.6500015  50.9700012  70.8500051  55.4800034  50.5800009  70.2700043
  54.8600006  51.0200024  71.9200039  54.4600010  52.4800014  70.4100037
  54.1800022  53.0500031  71.2900019  55.7800007  53.0600023  69.9000025
  56.7000008  53.3200026  70.6700039  55.9000015  53.3200026  68.5700035
  55.0900030  53.0700016  68.0200052  57.0000029  54.1800022  68.1000042
  57.8100014  54.2300034  68.8300037  57.5600004  53.6500025  66.7400026
  58.1700039  54.4200039  66.2900019  56.7800045  53.4600019  66.0100031
  58.4400034  52.4400043  66.9200039  57.8600025  51.6100025  67.3400021
  59.1200018  52.7200031  67.7200031  59.0600014  52.0100021  65.6200027
  60.0800037  52.5700045  65.1900053  58.4300041  51.2200022  64.9300051
  56.4400005  55.6300020  67.9600048  57.2600031  56.5600014  67.9300022
  55.1300049  55.8500004  67.9700041  54.5900011  55.0300026  67.7100039
  54.4600010  57.1900034  68.1100035  54.9800014  57.8000021  67.3700047
  52.9700041  57.2400045  67.8200054  52.4100018  57.1800041  68.7500048
  52.7100039  56.3700008  67.2200012  52.4000025  58.5100031  67.1400023
  53.0100012  58.7100029  66.2500048  50.9200001  58.3200026  66.7000055
  50.8000040  57.4600029  66.0500050  50.3000021  58.0100012  67.5500011
  50.5800009  59.2000008  66.1600018  52.4400043  59.7000027  68.0700016
  52.1000004  60.6500006  67.6700020  51.8800020  59.4600010  68.9800024
  53.5000038  59.9100018  68.2300043  54.8500013  57.8600025  69.4300032
  55.6100035  58.8600016  69.4700050  54.5900011  57.2100019  70.5700016
  54.0600014  56.3600016  70.4200029  55.2000046  57.4500036  71.9300032
  54.6100044  58.2000017  72.4500036  54.8000050  56.1700010  72.7600050
  55.0400019  55.3300047  72.1100044  53.7300014  56.3000011  72.9200029
  55.4200029  55.9500027  74.1300058  56.5100050  55.9000015  74.0000057
  54.9800014  57.1200037  75.0700045  55.3900003  57.0400047  76.0800028
  55.3300047  58.0500031  74.6200037  53.9300013  57.2600031  75.3000021
  54.8700047  54.5700026  74.7300053  53.7800026  54.5400047  74.6700048
  55.2100039  53.7500048  74.1100025  55.2600050  54.3800020  75.7200050
  56.7000008  57.8100014  71.9400024  57.1200037  58.7300014  72.6600027
  57.5100040  57.1300030  71.1500025  57.1200037  56.5400028  70.4400015
  58.9200020  57.5100040  71.0300016  59.3100023  57.8300047  72.0000029
  59.7400045  56.2600040  70.6600046  59.5700026  56.1100006  69.5900011
  59.5000029  55.3900003  71.2700033  61.1900043  56.4200020  70.9100056
  61.8000031  56.1600018  72.1400023  61.1500025  55.7700014  72.9000044
  63.1500053  56.4500046  72.3400021  63.6300039  56.3800049  73.3100033
  63.9300013  56.9400024  71.2700033  64.9400043  57.2400045  71.5100050
  63.3900023  57.1100044  70.0300026  64.0400028  57.4100018  69.2200041
  62.0100021  56.8200016  69.8500013  61.5500021  56.9600010  68.8900042
  59.2300034  58.6800051  70.0900030  60.1600027  59.4500017  70.3600025
  58.4100008  59.0200043  69.1600037  57.5900030  58.4300041  69.1400051
  58.4800005  60.2400017  68.2800055  59.4500017  60.2200031  67.7900028
  57.3800039  60.0900030  67.1900034  56.4100027  60.2600050  67.6600027
  57.4300051  59.1400051  66.6500044  57.5000048  61.1300039  66.0700035
  56.6800022  62.2700024  65.9700012  55.9700012  62.3600006  66.7800045
  56.6900015  63.0900049  64.8700047  56.0100031  63.9200020  64.9500036
  57.5400019  62.8000021  63.7900019  57.4900007  63.3600044  62.8700018
  58.4400034  61.7500019  63.9100027  59.0900040  61.5400028  63.0700016
  58.4500027  60.9200048  65.0600052  59.0800047  60.0500011  64.9400043
  58.3000040  61.4700031  69.1600037  58.9300013  62.5200033  68.9900017
  57.4400043  61.2800026  70.1600027  56.8900013  60.4300022  70.2100039
  57.3300028  62.3000050  71.1500025  57.2500038  63.2900047  70.7000017
  56.0900021  62.0300007  72.0500040  56.1500025  62.8000021  72.8200054
  55.2400017  62.1000051  71.3800049  56.1500025  61.0400009  72.4900055
  58.6200047  62.5000048  71.9900036  58.9400005  63.6000013  72.4000025
  59.4200039  61.4400005  72.2200012  59.1800022  60.5500031  71.8000031
  60.7000017  61.5300035  72.9800034  60.6000042  62.2400045  73.8100052
  61.1700010  60.1400042  73.4300041  62.1800041  60.1400042  73.8400030
  61.1000013  59.4800043  72.5700045  60.1900005  59.6600008  74.5700026
  59.1500044  59.5700026  74.2600012  60.2500010  60.2700043  75.4700041
  60.5600023  58.2100010  75.1300049  61.6300011  58.0300045  75.1300049
  60.2400017  57.4900007  74.3800020  59.9300051  57.9200029  76.5200043
  60.1600027  58.6100006  77.3300028  60.3900051  56.9700050  76.7800045
  58.4300041  57.6700020  76.5400028  58.0100012  58.5700035  76.3200045
  58.2500029  56.9400024  75.8700037  58.0000019  57.4100018  77.4100018
  61.8500042  62.1500015  72.1500015  62.4900007  63.0500031  72.6900053
  61.9300032  61.7300034  70.8700037  61.2800026  61.0400009  70.5300045
  62.7300024  62.5000048  69.8800039  63.7900019  62.5500011  70.1700020
  62.5200033  61.9500017  68.4600019  62.7400017  62.7100039  67.7200031
  61.4600039  61.7000008  68.3700037  63.2900047  60.6900024  68.3000040
  62.9500008  59.9700022  69.0400028  64.3100023  61.0300016  68.5200024
  63.2300043  60.2600050  66.8800020  62.2000027  60.0300026  66.5900040
  63.7400007  59.2900038  66.8900013  63.8500023  61.2000036  65.9700012
  64.5200014  61.7400026  66.4900017  63.6600018  61.3900042  64.6600008
  62.9100037  60.7100010  63.8700008  62.4100018  59.9200010  64.2500019
  62.7600050  60.9000015  62.9000044  64.3300009  62.2900009  64.0100050
  64.9200010  62.8600025  64.5700026  64.2600012  62.4600029  63.0200052
  62.3800039  63.9800024  69.8800039  63.2700014  64.8900032  69.9600029
  61.1300039  64.3400049  69.8900032  60.4600048  63.5900021  69.8300028
  60.6600046  65.7100010  70.1400042  61.0000038  66.3800049  69.3500042
  59.1200018  65.7700014  70.0000048  58.5700035  65.0300026  70.5700016
  58.9600039  65.5000019  68.9500046  58.5800028  67.0600033  70.3000021
  58.5900021  68.0500031  69.3300056  59.0200043  67.8500032  68.3500051
  58.0400038  69.3200016  69.6800041  58.1500006  70.1100016  68.9600039
  57.3300028  69.4400024  70.9000015  56.7300034  70.6300020  71.0300016
  56.1300039  70.7300043  71.7800045  57.3300028  68.4500027  71.8500042
  56.9300032  68.6700010  72.8200054  57.9400015  67.2200012  71.5300035
  57.8300047  66.4300013  72.2700024  61.1300039  66.3600016  71.4700031
  61.7600012  67.3900032  71.3700056  60.7400036  65.8400011  72.6400042
  60.1300049  65.0300026  72.6300049  61.1400032  66.3600016  73.9900017
  60.7500029  67.3600054  74.1500044  60.5900049  65.4700041  75.0800037
  60.7500029  64.4900036  74.6400023  59.5300007  65.6600046  75.0800037
  61.3500023  65.5300045  76.4700031  61.2100029  66.5300035  76.8800020
  62.4100018  65.2700043  76.4600039  60.6100035  64.5300007  77.3700047
  60.8300018  63.5100031  77.0200014  59.5400047  64.6900034  77.3400021
  61.1200047  64.6400023  78.7700033  61.1000013  65.6600046  79.1500044
  62.1600008  64.3300009  78.7300014  60.2700043  63.7700033  79.7000027
  60.2900028  62.8000021  79.4700050  60.6000042  63.8600016  80.6599998
  59.3100023  64.0600014  79.8300028  62.6400042  66.5500021  74.1000032
  63.0500031  67.5900030  74.6300030  63.4300041  65.5500031  73.5800028
  63.0200052  64.8800039  72.9500055  64.8900032  65.6200027  73.7500048
  65.1300049  65.9800053  74.7500038  65.5000019  64.2100048  73.6800051
  66.5700054  64.2300034  73.9000034  65.1400042  63.5700035  74.4900036
  65.2400017  63.7200022  72.7400017  65.6100035  66.7000055  72.8300047
  66.8100023  66.8400049  72.9000044  64.9500036  67.4900055  72.0100021
  63.9500046  67.4400043  71.9100046  65.5500031  68.4700012  71.1400032
  66.5300035  68.2000017  70.7500029  64.6200037  68.8500023  69.8800039
  63.7900019  69.3900013  70.3500032  65.2500010  69.5400047  69.3200016
  64.3600035  67.9400015  69.3600035  65.7700014  69.6900034  71.9500017
  66.8900013  70.1900053  71.8700027  64.8800039  70.1700020  72.8300047
  64.0900040  69.5600033  72.9900026  64.8700047  71.3000011  73.7200022
  64.9800014  72.2700024  73.2500029  63.4800053  71.2400055  74.4200039
  63.4500027  72.1200037  75.0700045  63.3700037  70.3400040  75.0200033
  62.3900032  71.3500023  73.3800030  61.9200039  72.6300049  73.0500031
  62.3300028  73.4600019  73.5800028  60.8200026  72.7100039  72.2200012
  60.5500031  73.7100029  71.9300032  60.2600050  71.5400028  71.6900015
  59.4800043  71.7000055  70.9500027  60.6400013  70.2500010  72.1200037
  60.1800013  69.3500042  71.7700052  61.7900038  70.2300024  72.9300022
  62.1300030  69.2700052  73.3100033  66.0100031  71.1000013  74.7500038
  67.0200014  71.8500042  74.7300053  66.1300039  69.9800014  75.4400015
  65.4900026  69.2100048  75.3600025  67.1900034  69.6500015  76.4100027
  67.3600054  70.4400015  77.1400023  66.8900013  68.3200026  77.0800018
  67.8000021  68.0400038  77.6100016  65.7200050  68.3300018  78.0800056
  64.7000027  68.5100031  77.7300024  65.5700016  67.4700022  78.7400055
  65.9200048  69.0700054  78.8500023  66.5500021  67.2600031  76.1700058
  66.2000036  66.6200018  76.7800045  68.6000013  69.5900011  75.8600044
  69.5600033  69.6700048  76.6300058  68.8100052  69.5500040  74.5400047
  67.9800034  69.7000027  73.9700031  70.0900030  69.4000053  73.8400030
  70.8800030  69.2800045  74.5800018  69.8500013  68.2100010  72.9400015
  69.2300034  68.5200024  72.1000051  69.3400049  67.4200010  73.5000038
  71.1900043  67.6200008  72.3400021  71.7000055  67.3500013  73.2700014
  71.7200041  68.3500051  71.7500019  70.9200048  66.3400030  71.6000032
  69.8500013  66.2400055  70.9500027  71.6600037  65.3600025  71.7200041
  70.4600048  70.7100010  73.0900049  71.5000057  70.8400011  72.4800014
  69.6100044  71.7600012  73.1200027  68.7400055  71.6200018  73.6000013
  69.9600029  73.1000042  72.6500034  71.0400057  73.0700016  72.4800014
  69.2800045  73.3200026  71.3700056  69.6600056  74.3100023  71.1300039
  68.2200050  73.4400034  71.6300011  69.3400049  72.0700026  70.1900053
  69.6300030  74.2200041  73.6200047  70.3600025  75.1700020  73.5900021
  68.7800026  74.0600014  74.5800018  68.2700014  73.2000017  74.6000051
  68.2100010  75.1900053  75.3000021  68.1100035  76.0000038  74.5800018
  66.8300009  74.9300051  75.9000015  66.5800047  75.8200026  76.4700031
  66.7200041  74.0900040  76.6000032  65.6200027  74.8000050  74.5700026
  69.1300011  75.8000040  76.3500023  68.7600040  76.8000031  76.9700050
  70.2400017  75.0600052  76.6100025  70.1900053  74.1200018  76.2400055
  71.4200020  75.4100037  77.3500013  71.1800051  76.3700056  77.8100014
  71.6400051  74.4100046  78.5300016  72.4300051  74.8400021  79.1500044
  71.9900036  73.4400034  78.1500053  70.4900026  74.2200041  79.5200014
  70.0500011  75.2000046  79.7000027  70.8400011  73.7600040  80.4400063
  69.3700027  73.3300018  78.9700031  68.3800030  73.7600040  78.5300016
  69.5700026  72.0300055  79.0100050  70.5100012  71.7100048  79.1700029
  68.8600016  71.4200020  78.6200047  72.7200031  75.6400013  76.5600014
  73.8000011  75.9500027  77.1100044  72.5700045  75.7600021  75.2600050
  71.6700029  75.5400038  74.8500013  73.6300039  75.9900045  74.2000055
  74.5800018  75.5700016  74.5100021  73.2800055  75.1600027  72.9300022
  72.9400015  74.1600037  73.1900024  72.5800037  75.7100058  72.3100042
  74.1600037  74.9600029  72.3200035  73.8700056  77.4800014  73.8300037
  73.0800056  78.3800030  73.9500046  75.0700045  77.8200054  73.4000015
  75.8900023  77.2200060  73.4400034  75.3600025  79.1900015  72.9000044
  75.1900053  79.8600054  73.7300014  76.9500017  79.1200018  72.6000023
  77.1300030  80.1000023  72.1800041  77.4200058  79.0600014  73.5800028
  77.2100019  78.2600021  72.0000029  74.5200014  79.4600058  71.6200018
  73.8900042  80.5300045  71.5700054  74.4100046  78.4200048  70.7600021
  74.9800014  77.6000023  70.8100033  73.7300014  78.4700060  69.4700050
  73.5800028  79.5400047  69.2800045  74.5200014  77.9100037  68.3300018
  74.1500044  78.4400034  67.4600029  74.3100023  76.8400049  68.2200050
  75.9900045  78.1700039  68.4300041  76.6500044  77.1600056  68.8400030
  76.4900017  79.2300034  68.0000019  72.2300053  78.0400038  69.5100021
  71.8300056  77.1000051  68.8300037  71.3600016  78.4600019  70.5300045
  71.6800022  79.2600060  71.0300016  70.0700045  77.8400040  70.8600044
  70.2500010  76.8400049  71.2700033  69.3800020  78.7500048  71.9300032
  68.4800053  78.2300043  72.2400045  69.1000032  79.6900034  71.4400053
  70.2900028  78.9900017  73.1400013  71.0900021  79.6300030  72.7800035
  70.8000040  78.0600023  73.3900023  69.5300055  79.5200014  74.4600058
  68.6200047  78.9200020  74.5900059  69.2400026  80.5700016  74.3300056
  70.4400015  79.3500042  75.7200050  70.4900026  78.2600021  75.7400036
  69.8100042  79.5500040  76.5800047  71.7200041  80.1000023  75.6500053
  72.1900034  79.7600031  74.8200035  71.6400051  81.1000061  75.5500031
  72.3200035  79.7800016  76.3800049  69.1400051  77.6800060  69.6700048
  68.7000036  76.5600014  69.6000051  68.8900042  78.7000036  68.8800049
  69.3400049  79.5800018  69.0600014  67.9300022  78.5800028  67.7900028
  67.0600033  78.0500031  68.1800032  67.5900030  79.9400043  67.3300028
  67.1600056  80.5800056  68.1000042  68.5000038  80.3900051  66.9500017
  66.8300009  79.9500036  66.5400028  68.4500027  77.7100039  66.6800022
  67.7100039  76.7500019  66.3000011  69.6700048  77.9700041  66.1600018
  70.2000046  78.7100029  66.6100025  70.3700018  77.0500040  65.2200031
  69.8300028  77.0600033  64.2700052  71.7800045  77.6200056  64.8600054
  71.7000055  78.6300039  64.4400024  72.4500036  77.5700045  65.7200050
  72.0400047  76.9300032  64.0600014  70.3900051  75.5700016  65.5700016
  70.4000044  74.6700048  64.6900034  70.4900026  75.2700043  66.8600035
  70.5300045  76.0100031  67.5500011  70.5800056  73.8700056  67.2900009
  71.3100052  73.3600044  66.6900015  71.3100052  73.8000011  68.6300039
  70.8900023  74.6200037  69.2300034  72.3600054  74.1000032  68.5400009
  71.2500048  72.2700024  69.5600033  69.1700029  73.2300043  67.2700024
  68.8600016  72.1500015  66.6600037  68.2000017  73.9300013  67.8200054
  68.5500050  74.7000027  68.3700037  66.8800020  73.4600019  68.1800032
  66.9000053  72.4500036  68.6100054  66.3300037  74.4200039  69.2800045
  66.0700035  75.3900051  68.8800049  67.0400047  74.5400047  70.1000023
  64.9900007  73.9900017  69.8500013  64.3700027  74.1600037  68.9700031
  65.0000048  72.6200056  70.4000044  65.1800013  71.8900013  69.6100044
  65.8400011  72.6600027  71.1100054  64.0400028  72.4100018  70.8500051
  64.4300032  74.9300051  70.9000015  64.9800014  74.8800039  71.8300056
  64.5700026  75.9200048  70.4600048  63.3600044  74.7300053  70.9600019
  65.8200026  73.3900023  66.9600010  65.2500010  72.3300028  66.6300011
  65.6900024  74.5100021  66.2200022  66.3000011  75.2600050  66.5000010
  64.6800041  74.6800041  65.1900053  63.6800051  74.5500040  65.6000042
  64.5400047  76.1100054  64.6800041  63.7600040  76.2600040  63.9400053
  65.4900026  76.3600016  64.2100048  64.2500019  77.1600056  65.7500029
  64.9100018  77.0000029  66.6000032  64.6500015  78.5700035  65.1500034
  64.7600031  79.2800045  65.9700012  65.5700016  78.6600018  64.5800018
  63.8800049  78.9800024  64.4900036  62.7800035  77.0300055  66.2500048
  62.1800041  76.9400024  65.3300047  62.5900030  76.1300039  66.8300009
  62.4100018  77.9400015  66.7000055  64.7300053  73.6400032  64.0700054
  63.7000036  73.0200052  63.7900019  65.9300041  73.3200026  63.4600019
  67.1700048  74.0300035  63.5600042  67.8400040  73.5900021  64.3000031
  66.9900036  75.0600052  63.8600016  67.7800035  73.9700031  62.1800041
  68.8400030  74.1800022  62.3600006  67.3900032  74.6600056  61.4300013
  67.5100040  72.4300051  61.8900013  68.2900047  71.8600035  62.4100018
  67.5000048  72.1800041  60.8300018  66.0500050  72.2900057  62.4100018
  65.2800035  72.5600052  61.6900015  65.7900047  70.8800030  62.9800034
  65.4000044  70.0500011  62.1400023  65.8300018  70.5800056  64.2700052
  66.1900043  71.2800026  64.9000025  65.2700043  69.3800020  64.9000025
  65.6400013  68.5400009  64.3100023  65.8500051  69.1800022  66.3700008
  65.2000046  68.4700012  66.8900013  65.7900047  70.0700045  66.9900036
  67.3700047  68.7300014  66.4300013  67.8900051  69.4800043  65.8200026
  67.3900032  67.7300024  65.9800053  67.8700018  68.7000036  67.9100037
  67.4700022  67.7900028  68.3700037  67.4600029  69.5400047  68.4600019
  69.4200039  68.6300039  68.1200027  69.8100042  69.5600033  67.6800013
  69.9100018  67.8700018  67.5100040  69.8400021  68.5600042  69.5000029
  69.5400047  69.3600035  70.0300026  69.6100044  67.6900053  69.9600029
  70.8500051  68.5100031  69.5900011  63.6900043  69.3100023  65.0400019
  63.2300043  68.1700039  64.7700024  62.9900026  70.3700018  65.2700043
  63.5500050  71.2100029  65.2600050  61.4900017  70.5100012  65.3200054
  61.1900043  69.5300055  65.7100010  61.0800028  71.5400028  66.3600016
  60.0000048  71.5500021  66.5000010  61.2100029  72.4800014  65.8300018
  61.6800022  71.5500021  67.7100039  62.7600050  71.4600039  67.5800037
  61.3900042  72.9000044  68.3900023  61.9100046  73.7000036  67.8700018
  60.3100014  73.1000042  68.3600044  61.6900015  72.8400040  69.4400024
  61.3800049  70.2700043  68.5500050  61.6800022  69.3400049  68.0700016
  61.9400024  70.3800011  69.4800043  60.3300047  70.2400017  68.8500023
  60.8300018  70.6300020  63.9400053  59.6700048  70.2500010  63.8100052
  61.6800022  70.9900045  63.0000019  62.5800037  71.3600016  63.2500029
  61.4800024  70.8800030  61.5600014  60.4300022  71.0400057  61.3500023
  62.2500038  72.0400047  60.9300041  63.3200026  71.8600035  61.0500050
  61.9400024  72.9900026  61.3600016  62.0500040  72.0200014  59.4000006
  62.9800034  71.6700029  58.6200047  60.9800053  72.3800039  58.9700031
  61.7300034  69.4200039  61.0500050  60.8700037  68.8800049  60.3200006
  62.8800011  68.8100052  61.4100027  63.6100054  69.3300056  61.8800020
  63.2100010  67.4400043  60.9800053  63.5300016  67.5000048  59.9400043
  64.5100021  66.9400024  61.7000008  64.4100046  66.9700050  62.7800035
  65.2300024  67.6700020  61.3100052  65.0300026  65.5600023  61.2700033
  64.3000031  64.8400021  61.6200018  65.9500027  65.3700018  61.8300009
  65.1900053  65.3600025  59.7100019  65.3500032  66.3300037  58.9200020
  65.1500034  64.1900015  59.2400026  62.0200014  66.5000010  61.1000013
  61.6600037  65.7900047  60.1100016  61.4100027  66.5000010  62.2600031
  61.8800020  67.0200014  62.9900026  60.2500010  65.6600046  62.6700020
  60.4100037  64.6200037  62.4100018  60.2100039  65.9000015  64.2000008
  59.2600012  65.6600046  64.6900034  60.1600027  66.9800043  64.3400049
  61.2300014  65.2500010  65.1400042  62.2200012  65.2200031  64.6900034
  61.2200022  66.0300016  66.5100050  61.7700052  65.5000019  67.2700024
  61.5900040  67.0400047  66.3200045  60.1500034  66.1300039  66.6900015
  60.8200026  63.8200045  65.4000044  61.3200045  63.6300039  66.3500023
  59.7400045  63.7600040  65.5900049  61.1500025  63.2900047  64.5100021
  58.9600039  66.1100054  61.9300032  58.1600046  65.2100039  61.6600037
  58.8600016  67.4000025  61.5000010  59.6400023  68.0300045  61.6100025
  57.6600027  67.9700041  60.8000040  56.7800045  67.4900055  61.2100029
  57.5300026  69.4700050  61.0300016  58.4800005  69.8600054  60.6200027
  57.5100040  69.5100021  62.1200037  56.2700033  70.1200056  60.4200029
  55.4400015  69.7300053  61.0100031  56.3000011  69.9800014  59.3400049
  56.3300037  71.6500044  60.7200050  56.2600040  71.8500042  61.8000031
  55.4100037  72.1500015  60.4100037  57.5600004  72.3600054  60.2800035
  57.9500008  71.8900013  59.4700050  58.0200005  73.5400057  60.5600023
  57.3800039  74.4100046  61.2900019  56.5100050  74.1200018  61.7200041
  57.8400040  75.2700043  61.5400028  59.1300011  73.9100027  60.0600052
  59.7000027  73.3000040  59.4800043  59.5600033  74.7500038  60.4000044
  57.6500034  67.5100040  59.3500042  56.5700006  67.2700024  58.7200022
  58.8400030  67.3700047  58.8600016  59.6300030  67.6900053  59.3900013
  59.1900015  67.1200037  57.4600029  58.5300016  67.7500010  56.8500042
  60.5900049  67.7400017  57.2200012  61.3500023  67.1800041  57.7600050
  60.5900049  68.6900043  57.7500010  61.0700035  67.9700041  55.7900047
  62.2400045  68.3800030  55.6300020  60.3300047  67.7100039  54.8300028
  59.0700006  65.5300045  57.0500040  58.7500048  65.1200008  55.8900023
  59.3700027  64.6600008  57.9900026  59.5100021  64.9500036  58.9400005
  59.3200016  63.1500053  57.7900028  59.1500044  62.9000044  56.7400026
  60.6900024  62.6700020  58.1300020  60.9000015  62.9100037  59.1700029
  61.3300037  63.2800007  57.4800014  61.1000013  61.2100029  57.7500010
  60.9200048  60.8800030  56.7300034  60.5900049  60.5200052  58.4100008
  62.5800037  61.0000038  57.9800034  63.0100012  60.7100010  59.1500044
  63.3600044  61.0200024  56.9700050  58.2200050  62.4400043  58.5300016
  58.2700014  61.2100029  58.7500048  57.2400045  63.1700039  59.0200043
  57.2600031  64.1400051  58.7600040  56.0300016  62.6800013  59.6400023
  55.3400040  63.4900045  59.8100042  56.2800026  62.1700048  60.5700016
  55.2500010  61.7400026  58.7600040  54.9800014  60.5800009  59.1200018
  54.8100042  62.1700048  57.5300026  55.1000023  63.0800009  57.2200012
  54.1200018  61.3800049  56.5600014  53.1700039  61.0100031  56.9600010
  53.6400032  62.2300053  55.3600025  53.2900047  61.6700029  54.4900036
  54.5200014  62.7000046  54.9300003  52.5700045  63.2900047  55.7100010
  53.0000019  64.0600014  56.3500023  51.7800045  62.7100039  56.1700010
  51.9400024  63.9000034  54.4500017  51.4900017  63.0700016  53.8900042
  52.7800035  64.2500019  53.8500023  51.0000038  64.9300051  55.0500011
  51.5500021  65.7400036  55.5300045  50.3200006  64.5400047  55.7900047
  50.2200031  65.5400038  53.9800024  50.8000040  66.0700035  53.3500004
  49.7000027  64.8500013  53.4700012  49.4800043  66.1100054  54.3900013
  54.8900032  60.1400042  56.1800003  54.3200016  59.0700006  56.0600042
  56.2100029  60.1700020  56.0100031  56.6500044  61.0600042  55.8300018
  56.9300032  59.0700006  55.6400013  56.4300013  58.5100031  54.8500013
  58.2700014  59.5800018  55.0500011  58.7700033  60.2500010  55.7500029
  58.9500046  58.7400007  54.9400043  58.1000042  60.1200008  54.1100025
  57.1700048  58.1200027  56.8200016  57.2700024  56.9000006  56.6200018
  57.1800041  58.6100006  58.1200027  57.2400045  59.6100044  58.2700014
  57.3400021  57.7300024  59.2900038  58.1300020  56.9900036  59.2800045
  57.5300026  58.6700010  60.4900026  57.5500011  58.1200027  61.4400005
  56.6900015  59.3300009  60.6700039  58.8200045  59.3200016  60.3100014
  58.5600042  60.0000048  59.7000027  56.0600042  56.9600010  59.6100044
  56.1200047  55.8100033  60.0900030  54.9600029  57.4100018  59.1800022
  54.9600029  58.2800007  58.6500025  53.6200047  56.6900015  59.2000008
  53.6100006  55.9900045  60.0200033  52.5000048  57.7400017  59.5900011
  52.7600002  58.1600046  60.5700016  51.5800047  57.1500015  59.6300030
  52.2800016  58.7400007  58.5600042  52.2100019  59.6300030  58.9400005
  53.2800007  56.0100031  57.9100037  52.6100016  54.9700022  57.9500008
  53.7700033  56.4600039  56.7500019  54.3200016  57.3100042  56.7100048
  53.7100029  55.6500006  55.5300045  52.6600027  55.4800034  55.3300047
  54.2900038  56.3400030  54.3400049  55.3800011  56.2500048  54.3600035
  53.8700008  55.7700014  53.5100031  53.9300013  57.3500013  54.2300034
  54.4700003  54.3000031  55.5600023  54.0100002  53.3100033  54.9800014
  55.4800034  54.2000008  56.4400005  55.6800032  55.0100040  57.0200014
  56.2700033  53.0000019  56.7700005  56.5500021  52.7200031  55.7500029
  57.5900030  53.3500004  57.5000048  57.2500038  53.4900045  58.5300016
  57.9800034  54.2700005  57.0600033  58.5600042  52.1900034  57.6500034
  58.8300037  51.7300034  56.7000008  58.0000019  51.5300035  58.3000040
  59.9200010  52.7100039  58.2000017  60.1600027  53.6300039  57.6500034
  60.6500006  51.9400024  57.9600048  59.7500038  53.1100035  59.6500015
  58.9900017  52.5000048  60.1500034  59.3700027  54.1100025  59.4500017
  60.9900045  53.2700014  60.4200029  60.8000040  53.6700010  61.3300037
  61.5800047  52.4500036  60.4600048  61.6400051  53.8200045  59.8600006
  55.4300022  51.9100046  57.4400043  55.7300043  50.7300043  57.1300030
  54.3700027  52.3500013  58.1900024  54.2900038  53.3500004  58.2600021
  53.3700037  51.4400005  58.7700033  53.8700008  50.4600000  58.8700008
  52.9700041  51.7000008  60.2100039  52.4700022  52.6600027  60.3200006
  53.8100004  51.7700005  60.9100008  52.1500015  50.6400013  60.7900047
  51.2500048  50.5000019  60.1900005  51.8200016  50.9900045  61.7700052
  52.8500032  49.2200041  60.9800053  54.0600014  49.1700029  61.0000038
  52.1400023  48.1800032  61.3400030  51.1700010  48.2100010  61.0900021
  52.6500034  47.3200035  61.5400028  52.2000027  51.1300039  57.8000021
  51.8800020  49.9500036  57.6500034  51.6300011  52.1700048  57.2000027
  51.9700003  53.0600023  57.5200033  50.4900026  52.0600033  56.2500048
  49.5700026  51.6900015  56.6800022  50.1500034  53.4800005  55.7300043
  50.9000015  53.8900042  55.0500011  50.0800037  54.1500044  56.5900040
  48.8900042  53.5600042  54.8800039  49.0800047  52.8600025  54.0600014
  48.8400030  54.6000004  54.5700026  47.5700045  53.3400011  55.5700016
  47.6700020  53.7700033  56.5700006  47.4200010  52.2700024  55.7400036
  46.4600039  53.9400005  54.8700047  46.4700031  54.9600029  54.8700047
  45.6599998  53.6400032  53.9100027  45.5500031  52.5000048  53.3100033
  46.2500000  51.8100023  53.5300016  44.9900007  52.4100018  52.4800014
  44.9400043  54.6100044  53.4500027  45.0300026  55.5500031  53.8200045
  44.1400003  54.5100021  52.8500032  50.8300018  51.0700035  55.1100016
  50.0500011  50.2000046  54.6900034  52.1200037  51.0700035  54.6200037
  52.7600002  51.8300009  54.7800016  52.5800037  50.1300001  53.6100006
  51.9800043  50.0900030  52.7000046  53.9800024  50.4900026  53.2800007
  54.5200014  50.6400013  54.2100048  53.9500046  51.4500046  52.7400017
  54.7800016  49.6300030  52.3100042  54.7400045  48.5700035  52.5800037
  54.2600012  49.6800041  50.8900023  53.2000017  49.4500017  50.8200026
  54.5000029  50.6700039  50.4800034  54.7600031  48.8400030  50.3900003
  56.2700033  50.2200031  52.3400021  56.5600014  50.2700043  53.3900023
  56.9800043  49.6300030  51.7500019  56.2900019  51.2600040  51.9900036
  52.5400019  48.7200022  54.1400003  52.3700047  47.8000021  53.3400011
  52.8000021  48.4100008  55.4200029  53.1000042  49.1600037  56.0300016
  52.8000021  47.0600033  56.0900021  53.1200027  46.2400007  55.4600048
  53.6700010  47.0000029  57.4000025  53.5500002  46.1000013  58.0000019
  53.4100008  47.7300024  58.1800032  55.1700020  47.1000004  57.2200012
  55.3000021  48.0100012  56.6300011  55.5200005  46.2900019  56.5900040
  55.8900023  47.0600033  58.5600042  55.8100033  46.0800028  59.0300035
  55.5100012  47.7800035  59.2800045  57.3800039  47.1900034  58.3300018
  57.6700020  46.4000034  57.6400042  57.7500010  47.0300007  59.3400049
  57.8300047  48.5400009  57.8500032  57.2900009  49.2700005  58.2900047
  58.8200045  48.6800003  57.9800034  57.5800037  48.6000013  56.8700027
  51.3600016  46.6700029  56.4900017  51.1600018  45.4700041  56.3800049
  50.5100012  47.6100016  56.8100023  50.7800007  48.5800028  56.8100023
  49.0700006  47.3500013  56.7700005  48.9000034  46.4600039  57.3900032
  48.3500004  48.4800005  57.4400043  47.3000002  48.2600021  57.5900030
  48.3300018  49.3500042  56.7800045  49.0700006  49.0900040  59.0300035
  48.4000015  47.0500040  55.4300022  47.5400019  46.1900043  55.3900003
  48.7500000  47.7800035  54.3600035  49.2900038  48.6300039  54.4900036
  48.4500027  47.3900032  52.9000044  47.3699999  47.3300028  52.7700043
  49.1400003  48.2700014  51.8500042  50.1800013  48.4100008  52.1300030
  49.1000032  47.8000021  50.8600044  48.7100029  49.2700005  51.7500019
  48.8200045  45.9200001  52.6600027  48.0200005  45.1500034  52.1400023
  50.0500011  45.5600023  53.1200027  50.6600046  46.3200045  53.3700037
  50.5700016  44.2000008  52.9500008  50.4800034  43.8400030  51.9300032
  52.0500040  44.1400003  53.3100033  52.1700048  43.1200027  52.9500008
  52.0900011  44.2700005  54.3900013  52.8500032  45.0200033  52.6300049
  52.7200031  45.9500027  52.8300047  49.8300028  43.2100010  53.8700008
  50.0600004  42.0200014  53.7300014  48.9000034  43.6900043  54.7600031
  48.8300037  44.7000027  54.7300005  48.1200027  42.8100014  55.6800032
  48.5100031  41.7900038  55.6100035  48.3100033  43.2400036  57.1400023
  47.4900007  42.8800011  57.7600050  48.0700016  44.3000031  57.1200037
  49.7200012  42.9400015  57.7700043  50.4700041  43.3000040  57.0700026
  49.9300003  43.6900043  59.0700006  50.2100039  44.7100019  58.8100004
  49.0000010  43.6600018  59.6200037  50.7000017  43.1900024  59.6600008
  49.9000025  41.4600039  57.8700018  49.0400028  41.0200024  58.3700037
  50.1000023  41.1199999  56.8500042  50.8000040  41.2700033  58.4600019
  46.6200018  42.8600025  55.1700020  46.0700035  41.7900038  55.2000046
  46.0600042  44.0000010  54.7500038  46.7000008  44.7800016  54.7800016
  44.6200037  44.1700029  54.5700026  44.0900040  43.2700014  54.8800039
  44.2200041  45.2800035  55.4900026  43.2000017  45.5700016  55.2800035
  44.7500038  46.2100029  55.3000021  44.4600010  44.9100018  57.0000029
  45.4600000  44.5100021  57.1300030  43.6800003  44.2000008  57.3000050
  44.4300032  46.0700035  57.9700041  44.7100019  47.2000027  57.6000023
  44.1800022  46.0000038  59.2300034  43.8900042  45.1200008  59.6400023
  44.2700005  46.8500042  59.7700024  44.2000008  44.5300007  53.1200027
  43.0100012  44.3900013  52.8000021  45.1300001  44.8800039  52.2300005
  46.0900021  44.9400043  52.5400019  44.8699999  45.2300024  50.8300018
  43.7900019  45.1800013  50.6900024  45.3400040  46.6300011  50.6400013
  44.9900007  46.9000006  49.6400023  46.4300013  46.6800022  50.7200003
  44.7600031  47.6800013  51.6100025  45.1999998  48.6500025  51.3800001
  45.1800013  47.5400019  52.6000023  43.2200003  47.6800013  51.6700029
  42.8400040  47.1400023  52.5400019  42.8000021  47.4300003  50.7000017
  42.7900028  49.0800047  51.9500017  43.1500006  49.8500013  51.2500048
  43.2000017  49.3300009  52.9300022  41.3400030  49.2000008  51.8900013
  40.8800030  48.7900019  52.6900005  41.0300016  50.1500034  51.8400002
  40.9400034  48.8200045  51.0300016  45.3700018  44.3500042  49.7400045
  44.7200012  44.4099998  48.6500025  46.4800024  43.6300039  49.8700047
  46.8100023  43.6199999  50.8200026  47.1500015  42.8400040  48.8700008
  46.6100025  42.8400040  47.9200029  48.5000038  43.4700012  48.4500027
  49.0200043  42.8200006  47.7400017  49.1600037  43.4700012  49.3100023
  48.3900023  44.7500038  47.7100039  48.2200003  44.8000002  46.3200045
  48.1500006  43.8400030  45.8300018  48.1300020  45.9800005  45.5600023
  47.9900026  46.0200024  44.4800043  48.3500004  47.1800041  46.2100029
  48.2200003  48.0900002  45.6400013  48.4600019  47.1800041  47.5600004
  48.5700035  48.0900002  48.1200027  48.4500027  46.0000038  48.3300018
  48.5800028  46.0700035  49.4000006  47.2500038  41.3199997  49.1700029
  48.0300045  40.5100012  48.6200047  46.5400028  40.8599997  50.2100039
  45.8400011  41.5100002  50.5400038  46.6900015  39.5800018  50.9500027
  46.9800043  38.7700009  50.2700043  45.7900000  39.3500018  51.5200043
  47.8600025  39.5100021  51.9100046  48.9000034  40.0600004  51.6100025
  47.8200006  38.7100029  52.9300022  47.0000029  38.2000017  53.2100010
  48.8500023  38.8100028  54.0300035  49.3100023  39.8000026  54.0700006
  48.1400013  38.7200022  55.4000044  47.2500038  39.3400025  55.4700041
  48.8500023  39.0600014  56.1600018  47.6600027  37.3000026  55.8100033
  47.1100044  37.4600029  56.7300034  48.5100031  36.6500020  56.0200024
  46.7500019  36.7200017  54.7700024  45.6500006  37.2700024  54.5500040
  47.1900034  35.8100009  54.0500021  50.1000023  37.9400015  53.7000036
  51.1300039  38.0000019  54.4400024  50.1400042  37.1900010  52.6100016
  49.3300009  37.0700026  52.0200014  51.3700008  36.6200018  52.1000004
  51.8100023  36.1100006  52.9600048  51.1400032  35.5500007  51.0100031
  52.0100021  35.4400015  50.3700018  50.3700018  35.9600019  50.3500032
  50.7800007  34.2600012  51.7600012  51.6600037  33.8600016  52.2400045
  50.5600023  33.5100007  50.9900045  49.6400023  34.2000008  52.7800035
  48.6600018  34.4400024  52.3500013  49.8600006  34.8100019  53.6500025
  49.4800043  32.8500009  53.3400011  50.0200033  32.1100020  52.9300022
  48.8700008  32.4900007  54.4700003  48.0000019  33.2400012  54.9600029
  47.8200006  34.1300011  54.5400047  47.4500036  32.9300022  55.7400036
  49.1600037  31.3700008  55.0200033  49.8600006  30.7500005  54.6300030
  48.6700010  31.0400009  55.8400011  52.4400043  37.6900029  51.6700029
  53.6300039  37.4600029  51.8100023  51.9100046  38.8600016  51.3500023
  50.9200001  39.0100026  51.3100004  52.7600002  39.9800014  50.9200001
  53.5400009  39.6500015  50.2400017  51.9900036  41.1100006  50.2400017
  51.1700010  41.4400005  50.8800030  52.6600027  41.9600010  50.0600004
  51.6500044  40.7900000  49.2600012  53.5200024  40.5400038  52.1500015
  54.7500038  40.8400011  52.0700026  52.9600048  40.5500031  53.3300018
  51.9700003  40.3299999  53.3400011  53.6100006  40.9200001  54.5600033
  54.2600012  41.7700005  54.3800020  52.6000023  41.2300014  55.6400013
  52.0100021  40.3299999  55.7800007  52.0000029  42.0900011  55.3600025
  53.3000040  41.7000008  56.9400024  53.8200045  43.0000019  57.0200014
  53.5600042  43.7000036  56.2400007  54.6500015  43.4100008  58.0600023
  55.0800037  44.4000006  58.0900049  54.9500036  42.4500036  59.0100050
  55.6700039  42.6600027  59.7900009  54.4000006  41.1500025  58.9800024
  54.7400045  40.4900026  59.7600031  53.5600042  40.7700014  57.9200029
  53.1100035  39.7900009  57.9500008  54.4700003  39.7600007  55.0400019
  55.5800009  40.0100040  55.5000019  53.9800024  38.4800029  55.0500011
  53.0200005  38.4000015  54.7500038  54.8400021  37.3400021  55.4200029
  55.1300049  37.5700021  56.4500046  53.9300013  36.1000013  55.3800011
  53.6100006  35.8200026  54.3800020  53.0100012  36.3000011  55.9100008
  54.4500017  34.9000025  56.3300037  54.8700047  35.1600027  57.2900009
  55.3100014  34.4200015  55.8400011  53.4100008  33.7700009  56.5400028
  52.6700020  34.1000009  57.2700024  53.9700031  32.9400015  56.9800043
  52.5800037  33.2300019  55.3600025  51.9100046  34.0000010  54.9500036
  51.9100046  32.4800014  55.7900047  53.4800005  32.6700020  54.3100023
  53.0200005  31.9800019  53.7400007  53.9400005  33.4000015  53.7900019
  54.2200041  32.1500015  54.7300005  56.1500025  37.1300006  54.6300030
  57.1400023  36.7000008  55.2300024  56.2200022  37.6000023  53.4100008
  55.3600025  37.9400015  53.0000019  57.4000025  37.6900029  52.5900030
  57.9100037  36.7300010  52.6400042  56.8800020  38.0200028  51.1400032
  57.6900005  38.2400012  50.4400015  56.4900017  37.0400023  50.8600044
  56.0400009  38.6900020  51.2300014  58.4600019  38.6900020  53.1100035
  59.6000051  38.3100009  53.3200026  57.9600048  39.9100018  53.3900023
  56.9900036  40.1200008  53.1400013  58.7600040  40.9600019  53.9600039
  59.6300030  41.2200022  53.3500004  57.9600048  42.1800041  54.1700029
  57.1300030  41.9600010  54.8400021  57.5300026  42.4900007  53.2300043
  58.7500048  43.2800007  54.8400021  59.5100021  44.2100000  54.2300034
  59.7100019  44.2799997  53.1700039  60.2500010  44.9500036  55.1300049
  61.0600042  45.5000019  54.8900032  59.9300051  44.6300030  56.4200020
  60.1800013  45.2100039  57.6800013  60.9300041  45.9500027  57.8800011
  59.4600010  44.7500038  58.8700008  59.6500015  45.2200031  59.8200035
  58.4300041  43.7400007  58.7400007  57.8600025  43.3400011  59.5700026
  58.2800007  43.1700039  57.4400043  57.5300026  42.4200010  57.2600031
  58.9400005  43.6000013  56.2500048  59.3000031  40.3999996  55.2900028
  60.5100012  40.2700043  55.4600048  58.4200048  39.7700024  56.0500050
  57.4400043  39.8700023  55.8200026  58.7700033  39.2300010  57.3900032
  59.2300034  40.0300026  57.9900026  57.4100018  38.9700007  58.0600023
  56.8100023  39.8700023  58.1400013  56.8400049  38.3300018  57.3800039
  57.4500036  38.4500027  59.0300035  59.7500038  38.0600023  57.3100042
  60.6500006  38.0400014  58.1000042  59.7100019  37.2400022  56.2300014
  58.9200020  37.3200011  55.6000042  60.7100010  36.1300015  56.1400032
  60.8600044  35.6200027  57.0900011  60.1900005  35.0000024  55.1500034
  59.5900011  35.4800010  54.3700027  61.4000034  34.2600012  54.5000029
  61.0400009  33.3200026  54.0700006  61.8000031  34.8500013  53.6800003
  62.2200012  34.1600013  55.2200031  59.2600012  33.9800024  55.8100033
  58.8000011  33.4000015  55.0100040  59.7900009  33.3300018  56.5000010
  58.4500027  34.4600010  56.3500023  62.0300007  36.8100023  55.6900024
  63.0800009  36.6100025  56.2900019  62.0800018  37.6400018  54.6500015
  61.2300014  37.9100013  54.1800022  63.3100033  38.3000016  54.1600037
  64.0200043  37.5400019  53.8400030  62.9000044  39.0800023  52.9000044
  62.2300053  39.8800015  53.2400036  63.7100029  39.3800020  52.2300005
  62.1100044  38.5200024  52.3800039  64.0500021  39.1200018  55.1800013
  65.2200031  38.7900019  55.4600048  63.3900023  40.0900030  55.8000040
  62.3900032  40.1700020  55.7300043  64.0100050  40.9200001  56.8500042
  64.9700022  41.2400007  56.4300013  63.0300045  42.0600033  57.1500015
  62.2200012  41.6600037  57.7600050  62.4800014  42.3400021  56.2500048
  63.6000013  43.3200026  57.8000021  64.1400051  43.0700016  58.7000036
  62.7600050  43.9700031  58.0300045  64.5700026  43.9900017  56.8400049
  64.1200018  44.2100000  55.8700037  65.3300047  43.2800007  56.5600014
  65.2600050  45.1400042  57.4800014  64.5900011  45.7800007  57.8800011
  66.5200043  45.4300022  57.5900030  67.4300051  44.6300030  57.1400023
  67.1700048  43.9000034  56.4900017  68.4200048  44.7700024  57.2900009
  66.8400049  46.6000032  58.1300020  66.1100054  47.2700024  58.3100033
  67.8300047  46.7500019  58.2800007  64.3200016  40.1700020  58.1500006
  65.3200054  40.5400038  58.7500048  63.6600018  39.0800023  58.4700012
  62.9200029  38.8000011  57.8400040  64.0500021  38.2600021  59.6700048
  64.7200012  38.8500023  60.2900028  62.9900026  37.7400017  60.6100035
  63.6200047  37.3500013  61.4000034  62.4500036  36.9100022  60.1500034
  61.9700050  38.7400007  61.2300014  61.3700008  39.2000008  60.4600048
  61.1400032  37.9200029  62.2000027  60.4300022  37.3400021  61.6100025
  61.7500019  37.1800017  62.7200031  60.6500006  38.5600019  62.9300022
  62.7500010  39.8700023  61.8800020  63.3300018  40.5000019  61.2100029
  62.0200014  40.5600023  62.3300028  63.3800030  39.4300008  62.6500034
  65.0500011  37.1600008  59.4100046  65.8700037  36.8700027  60.2700043
  65.2300024  36.7300010  58.1400013  64.6500015  37.1500015  57.4400043
  66.3700008  36.0000014  57.7000046  66.4600039  35.1500010  58.3800030
  66.2400055  35.5600023  56.2500048  67.1100044  34.9400020  56.0000038
  66.2300014  36.4400029  55.6000042  65.1100016  34.7900009  56.0900021
  64.3500042  35.3800011  56.0900021  67.6400042  36.8700027  57.7700043
  68.6500025  36.4200020  58.2500029  67.5100040  38.1800008  57.5100040
  66.6900015  38.4100008  56.9500017  68.5500050  39.2500019  57.7100039
  69.4000053  38.8300014  57.1700048  68.1400013  40.5600023  57.0000029
  68.8500023  41.3199997  57.3100042  67.0900011  40.8500004  57.1600008
  68.3700037  40.4100037  55.4800034  67.6800013  39.6200013  55.1700020
  69.3900013  40.0600004  55.3300047  67.9100037  41.6300011  54.6900034
  67.0200014  42.4100018  55.1600027  68.3200026  41.9300032  53.4800005
  69.0200043  41.3300037  53.0700016  67.8800011  42.7600002  53.1300020
  68.9400053  39.3100023  59.1900015  70.1400042  39.3300009  59.5800018
  67.9200029  39.3100023  60.0700045  66.9600010  39.2300010  59.7500038
  68.1900024  39.4000030  61.5700006  69.0200043  40.0900030  61.7300034
  66.9400024  39.9500012  62.3300028  67.2100019  40.0100040  63.3800030
  66.1800051  39.2000008  62.1800041  66.3600016  41.3000011  61.9400024
  65.6800032  41.7500019  62.6500034  65.7500029  41.0900021  61.0600042
  67.4400043  42.4300003  61.6700029  68.0000019  42.1500015  60.7700014
  68.0700016  42.4800014  62.5600052  66.8000031  43.6900043  61.3700008
  65.8000040  43.7800026  61.5200043  67.3700047  44.8600006  61.2600040
  68.6000013  44.8699999  60.8800030  69.1400051  44.0400028  60.7000017
  69.0800047  45.7600021  60.8600044  66.6800022  45.9100008  61.3000011
  65.7200050  45.9500027  61.6200018  67.1900034  46.7700005  61.2100029
  68.7200022  38.1500030  62.2800016  69.3300056  38.2900023  63.3000040
  68.6100054  36.9600010  61.6400051  68.3000040  36.9200015  60.6800032
  69.0200043  35.5700016  62.2000027  69.9200010  35.7300019  62.8100014
  67.9300022  34.9600005  63.1500053  68.3700037  34.3200016  63.9100027
  67.3700047  34.3100023  62.4800014  66.8300009  35.8400011  63.7700033
  67.0400047  36.7700028  64.7900009  68.0500031  36.7600012  65.1900053
  66.1100054  37.7600026  65.1600027  66.3000011  38.5900021  65.8300018
  64.8200035  37.6200008  64.7400045  64.0800047  38.2700014  65.1900053
  64.5300007  36.6800022  63.7400007  63.5100031  36.6000009  63.3800030
  65.5400038  35.8700013  63.1600046  65.2500010  35.2600026  62.3100042
  69.5300055  34.7200012  60.9500027  68.9700031  33.7000012  60.6700039
  70.6700039  35.0900006  60.3400040  71.5200043  36.2000012  60.8300018
  71.5900040  36.0800028  61.9100046  71.0800028  37.1800017  60.6600046
  72.8300047  35.9000015  60.1600027  73.4000015  35.1900005  60.7600021
  73.4800053  36.7300010  59.8900032  72.4100018  35.1400018  58.8600016
  73.3100033  34.6100020  58.5500050  72.1300030  35.9200025  58.1700039
  71.2700033  34.3000007  59.3600035  70.5600023  34.2000008  58.5400009
  71.8500042  32.8500009  59.7500038  72.1400023  32.0300007  58.8900042
  71.8000031  32.5000024  61.0500050  71.5600014  33.1800008  61.7500019
  72.4300051  31.2200022  61.4900017  72.5600052  30.5200005  60.6600046
  73.8800049  31.3800025  62.0100021  74.4100046  30.4200006  62.0200014
  73.7900019  31.6600013  63.0600023  74.7700024  32.3800015  61.2700033
  74.3200016  33.3700013  61.2500048  74.7700024  32.0500016  60.2300024
  76.1900043  32.4600005  61.7900038  76.7800045  33.0100012  61.0700035
  76.5700054  31.4400005  61.7900038  76.4000034  32.9700017  63.2500029
  77.3100042  32.4700022  63.5400009  75.5000019  32.6600027  63.8000011
  76.5600014  34.4600010  63.3500051  76.2000036  34.7800016  64.2300034
  77.5200033  34.7600007  63.2400036  75.9300041  34.9200010  62.7100039
  71.4900017  30.4800010  62.3700047  71.8700027  30.2500010  63.4900045
  70.2100039  30.2400017  61.9400024  70.0300026  30.5500007  60.9900045
  69.1400051  29.6200013  62.6800013  69.4700050  29.1700006  63.6100054
  68.2000017  30.7600021  63.0800009  67.7800035  31.2200022  62.1900034
  67.5600052  30.4700017  63.9100027  68.8800049  31.5700006  63.3300018
  68.3600044  28.5100007  61.7300034  68.8100052  28.2700014  60.5900049
  67.3500013  27.8300023  62.2500038  67.0100021  28.0800009  63.1600046
  66.6200018  26.7600012  61.5100050  67.1500015  26.3500023  60.6600046
  66.5000010  25.6500006  62.6200008  65.9300041  26.1000013  63.4400034
  67.4800014  25.4500008  63.0600023  65.8000040  24.3600011  62.2700024
  64.7500038  24.6200013  62.2600031  65.9500027  23.7300014  63.1400013
  66.2500048  23.6500001  60.9600019  67.2900009  23.9900017  60.4400015
  65.6100035  22.7300000  60.3900051  65.2600050  27.2500014  60.9200048
  64.6800041  28.1300020  61.4000034  64.7800016  26.6500020  59.8400021
  65.2500010  25.8300018  59.4800043  63.6500025  27.2400022  59.1000032
  63.8900042  28.3000016  58.9200020  63.3400011  26.6200018  57.7700043
  63.1900024  25.5500007  57.9200029  64.2100048  26.7500019  57.1300030
  62.1400023  27.3100019  57.0000029  62.2200012  28.6700010  56.4400005
  63.1200027  29.2100024  56.6800022  61.2000036  29.1300011  55.6300020
  61.3100052  30.1500010  55.2500010  60.0800037  28.3300018  55.3100014
  59.3700027  28.7800002  54.6400023  59.9200010  27.0700002  55.9300041
  59.0300035  26.5000010  55.7300043  60.9300041  26.5600014  56.7200041
  60.8200026  25.5300021  56.9800043  62.3300028  27.1900010  59.9200010
  61.6100025  28.1200004  59.9900007  62.0300007  26.0800004  60.5800009
  62.6600027  25.2900004  60.6300020  60.8600044  26.0100007  61.4500046
  59.9700022  26.3200021  60.9000015  60.7800007  24.6200013  62.1200037
  60.2500010  24.0200019  61.3900042  61.7500019  24.2300010  62.4400043
  60.1800013  24.7500014  63.0200052  60.9600019  27.0500016  62.6000023
  59.9100018  27.4500012  63.1100035  62.1500015  27.4100018  62.9900026
  62.9000044  27.1800017  62.3800039  62.4500036  28.0700016  64.2600012
  61.6200018  27.8200006  64.9300051  63.6900043  27.5200009  64.9200010
  64.1000032  28.1600022  65.7000017  64.4200039  27.3300004  64.1200018
  63.3600044  26.1700010  65.5300045  63.5100031  25.4400015  64.7300053
  62.4000025  26.0700011  66.0400009  64.4400024  25.8500004  66.6400051
  64.1800022  25.3000021  67.7600050  65.6400013  26.1100006  66.4400053
  62.4400043  29.6100020  64.0800047  62.0800018  30.3600025  64.9300051
  62.9600048  30.0300026  62.9100037  63.4000015  29.3900013  62.2700024
  62.8100014  31.4100003  62.4700022  62.9600048  32.1000004  63.3000040
  63.7700033  31.6500020  61.2900019  63.6800051  30.9400010  60.4700041
  63.7500048  33.1300020  60.8900023  64.6900034  33.3800006  60.3800011
  62.9400015  33.3000016  60.1800013  63.6400032  33.7800026  61.7600012
  65.1500034  31.4600015  61.9000006  65.3000021  32.0400023  62.8100014
  65.4300022  30.4100013  61.9300032  65.9100008  31.9300008  61.2800026
  61.4500046  31.8000007  61.8800020  60.9700012  32.8400016  62.1700048
  60.8200026  30.7900023  61.2000036  61.2800026  29.9400020  60.9100008
  59.4800043  31.0100007  60.6200027  59.4700050  31.9200015  60.0200033
  59.0300035  29.9100018  59.7300005  57.9700041  29.9900007  59.4600010
  59.0900040  28.9700007  60.2800035  59.8500013  29.7400022  58.5500050
  60.6400013  29.2400002  58.8200045  58.4400034  31.2200022  61.7100048
  57.5000048  31.9300008  61.4500046  58.6800051  30.6600022  62.9500008
  59.5400047  30.1300025  63.0100012  57.9100037  30.9800005  64.1900015
  56.8400049  30.9000015  64.0400028  58.3300018  29.9200010  65.1700020
  59.4200039  29.9600005  65.2700043  58.0700016  28.9500022  64.7500038
  57.5800037  30.1600003  66.5500021  56.5500021  29.7700024  66.4800024
  57.6700020  31.1900020  66.8500042  58.1300020  29.0700006  67.5400019
  59.1400051  29.3900013  67.7700043  58.1500006  28.0500007  67.1500015
  57.4200010  29.1500020  68.8900042  56.3800049  29.1500020  68.5700035
  57.5600004  30.1500010  69.2900038  57.7600050  28.1100011  69.7700024
  57.6700020  27.2000003  69.3500042  58.7200022  28.0800009  70.0500011
  57.2600031  28.2500005  70.6300020  58.1000042  32.4100018  64.6500015
  57.1000004  33.0300021  65.0600052  59.2700005  32.9800010  64.4400024
  60.0000048  32.4200010  64.0000010  59.4200039  34.3800020  64.7300053
  58.8800049  34.5700026  65.6500053  60.9200048  34.7500014  64.8000050
  60.9900045  35.7400012  65.2300024  61.3300037  34.6200013  63.8000011
  61.7600012  33.8800025  65.7400036  61.6000032  32.8100014  65.6600046
  63.2600021  34.0500021  65.5600023  63.8100052  33.3200026  66.1500025
  63.5700035  33.9700007  64.5100021  63.5100031  35.0300026  65.9400034
  61.4500046  34.1700006  67.2600031  61.6500044  35.2300024  67.4100018
  60.4100037  33.8900018  67.4400043  62.1300030  33.5300016  67.8100014
  58.8800049  35.2700019  63.5900021  58.3600044  36.3200021  64.0100050
  58.8500023  34.9000025  62.3000050  59.1300011  33.9600015  62.0900011
  58.1000042  35.6200027  61.2400007  58.4200048  36.6400027  61.0500050
  58.2800007  34.9000025  59.9300051  57.9300022  33.8900018  60.1500034
  57.4600029  35.4600024  58.7900019  58.0700016  36.1600018  58.2200050
  57.2000027  34.6200013  58.1600046  56.5500021  36.0000014  59.0500021
  59.7900009  34.7600007  59.4500017  60.4500008  34.6000028  60.2900028
  59.9300051  33.9600015  58.7100029  60.1100016  35.7500029  59.1200018
  56.5800047  35.7100010  61.4800024  55.9500027  36.7800021  61.4300013
  55.9900045  34.6000028  62.0300007  56.5800047  33.7800026  62.0500040
  54.5500040  34.5500016  62.3400021  53.9300013  35.1600027  61.6900015
  54.0400028  33.0800009  62.3100042  53.0800009  33.0100012  62.8300047
  53.8800049  32.5800014  60.8700037  53.4800005  31.5600014  60.9900045
  53.1300020  33.2000017  60.3800011  54.8600006  32.4400020  60.4000044
  54.9200010  32.1100020  62.8500032  55.7400036  32.1200013  62.3500013
  54.2000008  35.2400017  63.6600018  53.1400013  35.8700013  63.7400007
  55.1600027  35.3500009  64.5700026  56.0200024  34.8500013  64.3900013
  55.1200008  36.2500024  65.7200050  54.1800022  36.1100006  66.2600040
  56.2000036  35.8300018  66.7400026  56.5600014  36.6600013  67.3500013
  57.0700026  35.6000018  66.1300039  55.9700012  34.5600009  67.4800014
  56.7900038  34.2400026  68.3300018  54.8200035  34.0000010  67.4300051
  55.1700020  37.7100015  65.3100014  54.2600012  38.5000014  65.7100010
  56.1300039  38.0800009  64.4700050  56.7700005  37.4000025  64.0800047
  56.1800003  39.5000029  64.0700054  56.2000036  40.1300001  64.9700022
  57.3600006  39.8700023  63.3200026  57.2800016  39.3200016  62.3800039
  58.3100033  39.5400023  63.7800026  57.5700045  41.3300037  62.9000044
  56.6700029  41.7100000  62.4100018  57.9500008  42.3200035  64.0100050
  57.2000027  42.2200012  64.8000050  58.9200020  42.0000029  64.3900013
  58.1400013  43.3400011  63.7200022  58.6700010  41.4499998  61.8500042
  58.6800051  42.5200033  61.6200018  59.6400023  41.2200022  62.2700024
  58.3300018  40.8100033  61.0300016  54.9700022  39.9300027  63.2600021
  54.4200039  41.0300016  63.4300041  54.4100046  39.0400028  62.4100018
  54.8500013  38.1300020  62.4600029  53.1400013  39.2500019  61.7100048
  53.2800007  40.1600027  61.1300039  52.8800011  38.0000019  60.8800030
  52.8200006  37.1300006  61.5300035  51.6400003  38.0700016  60.0300026
  51.4700031  39.0000010  59.5000029  51.7400026  37.2300029  59.3300009
  50.7800007  37.8500009  60.6600046  53.8700008  37.8400016  59.9200010
  54.6900034  37.5500011  60.3300047  51.9500017  39.4700027  62.6800013
  51.0600042  40.2400017  62.3400021  51.9500017  38.7800026  63.8500023
  52.6800013  38.0900025  63.9900017  50.8900023  38.9800024  64.8500013
  49.9300003  38.8000011  64.3900013  51.0700035  37.9500008  65.9700012
  51.8800020  38.2800007  66.6300011  51.2700033  36.9800019  65.5400038
  49.6900034  37.7900028  66.7000055  49.0100002  37.2900009  66.0200024
  49.2900038  38.7700009  66.9900036  49.7700024  37.0000029  67.9600048
  50.5800009  37.4100018  68.5500050  49.9200010  35.9800029  67.6300049
  48.4500027  37.0400023  68.7100029  47.8299999  36.2700009  68.2400036
  48.0200005  38.0200028  68.5500050  48.6300039  36.9500017  70.1700020
  49.3100023  37.6700020  70.3900051  47.7200031  37.2200012  70.5100012
  49.0500021  36.0900021  70.4800034  50.8800030  40.3900003  65.4700041
  49.8300028  41.0300016  65.5500031  52.1400023  40.8800030  65.7700014
  52.7900028  40.1200008  65.8800030  52.4600029  42.2500038  66.2100029
  51.8900013  42.4800014  67.1100044  53.9800024  42.3800039  66.4500046
  54.4700003  42.0800018  65.5300045  54.5800018  43.8000011  66.7600012
  55.5700016  43.7300014  67.2000027  54.5300007  44.3900013  65.8400011
  53.9300013  44.2500019  67.5100040  54.4900036  41.5700006  67.6400042
  55.5700016  41.4900017  67.4900055  54.3500042  42.1000004  68.5900021
  54.1300011  40.5400038  67.6700020  51.9600010  43.2500029  65.1900053
  51.2300014  44.2000008  65.5700016  52.3900032  43.1300020  63.9500046
  52.9600048  42.3699999  63.6300039  51.9100046  44.1000032  62.9300022
  52.1200037  45.0600004  63.4000015  52.7000046  44.0100002  61.6300011
  52.0600033  44.4800043  60.8900023  52.6900005  43.0100012  61.1900043
  54.0700006  44.6600008  61.7400026  54.2500019  46.0100031  61.4800024
  55.3700018  46.3300037  62.0800018  55.7400036  47.3300028  62.2300053
  56.0300016  45.2800035  62.5300026  56.9300032  45.2300024  62.9800034
  55.1700020  44.2200041  62.4300051  55.1900005  43.2400036  62.8800011
  50.3500032  44.0000010  62.7300024  49.7800016  45.0800037  62.5200033
  49.7200012  42.8000021  62.8600025  50.3100014  42.0000029  63.0600023
  48.3500004  42.7100039  62.6700020  48.1200027  43.2200003  61.7200041
  47.8900003  41.2300014  62.4300051  48.0300045  40.7000017  63.3800030
  46.4000034  41.1600018  62.0600033  45.7200003  41.2800026  62.9000044
  46.1500025  41.8300009  61.2400007  46.3000011  40.1100016  61.7700052
  48.6500025  40.6599998  61.3700008  49.5200014  40.3900003  61.6400051
  47.4600029  43.3300018  63.7800026  46.5500021  44.0500021  63.3900023
  47.8100014  43.2700014  65.0800037  48.6300039  42.7300024  65.2900028
  47.1100044  43.9300013  66.1700010  46.0600042  43.6500025  66.1000013
  47.6600027  43.4500027  67.5300026  47.2500038  44.0700006  68.3300018
  48.7400007  43.6000013  67.4800014  47.5600004  41.9200039  67.8100014
  48.2900000  41.6499996  68.5700035  47.6700020  41.2900019  66.9300032
  46.1800003  41.5600014  68.2900047  45.9700012  41.3700008  69.4700050
  45.2500010  41.2800026  67.4400043  47.1800041  45.4900026  65.9700012
  46.1600018  46.1500025  65.9500027  48.3800030  45.9700012  65.6900024
  49.1500044  45.3600025  65.4600048  48.4700012  47.3699999  65.4100037
  48.0100012  47.8200006  66.3000011  49.9800014  47.7500010  65.3500032
  50.1200008  48.5500002  64.6200037  50.5200005  46.9099998  64.9100018
  50.7800007  48.2300043  66.9800043  47.7700043  47.9300022  64.1300011
  47.0800018  48.9200020  64.1600037  47.7500010  47.2000027  63.0700016
  48.3300018  46.3800001  62.9800034  46.9800043  47.5700045  61.8300009
  47.0500040  48.6700010  61.7800045  47.5400019  46.9099998  60.5800009
  46.9400024  46.9800043  59.6800041  47.6700020  45.8400011  60.7500029
  49.3100023  47.3900032  60.1500034  45.5200005  47.3900032  62.0100021
  44.7600031  48.1000042  61.3500023  45.0800037  46.4900017  62.9700041
  45.8000040  46.0100031  63.4900045  43.6700010  46.3600016  63.2800007
  43.1100035  46.3600016  62.3400021  43.5300016  45.0300026  64.0200043
  43.9100027  45.0800037  65.0400019  44.1600037  44.3400002  63.4600019
  42.1500015  44.5900011  63.8200045  41.6499996  44.2600012  62.5700045
  40.4300022  43.8000011  62.8500032  39.7400022  43.4300041  62.1200037
  40.0800037  43.9100027  64.1400051  39.2900014  43.4400034  64.5800018
  41.2000036  44.4099998  64.7800016  41.2700033  44.6900034  65.8200026
  43.1200027  47.4600029  64.1700029  41.8900013  47.4800014  64.3600035
  43.9499998  48.3800030  64.6400023  44.9500036  48.3300018  64.4800043
  43.6000013  49.4200039  65.6300020  42.6400042  49.7800016  65.2300024
  44.2799997  50.2800035  65.5400038  43.6700010  48.9200020  67.0600033
  43.3000040  49.5800018  67.9900026  44.1300011  47.6700020  67.2600031
  44.5900011  47.1400023  66.5400028  44.1300011  47.0100021  68.5900021
  43.4000015  47.5000000  69.2400026  43.7200022  45.5400038  68.4600019
  44.0000010  45.0300026  69.3800020  44.4400024  45.0700045  67.8000021
  42.3400021  45.3000021  67.9600048  41.5500021  46.2400007  67.7500010
  41.9800043  44.1100025  67.9700041  45.5400038  47.2000027  69.2100048
  46.4700031  46.3700008  69.1100025  45.6700039  48.3900023  69.8900032
  44.8699999  49.0000010  69.8700047  47.0100021  48.9400005  70.1000023
  47.7100039  48.5000038  69.3900013  46.9000006  50.5300045  70.0400019
  47.9200029  50.9000015  70.0600052  46.3000011  50.8000040  70.9100056
  46.1900043  51.0800028  68.8400030  45.1100016  50.9200001  68.8000011
  46.4100027  52.5800037  68.8400030  45.7900000  52.9600048  68.0300045
  46.0200024  53.0200005  69.7600031  47.4800014  52.7600002  68.8000011
  46.8700027  50.5700016  67.5600052  47.9600000  50.6500006  67.6200008
  46.6000032  49.5200014  67.4200010  46.4800024  51.1600018  66.7300034
  47.5700045  48.5700035  71.4800024  48.8000011  48.3800030  71.5600014
  46.7000008  48.3900023  72.4300051  45.7300043  48.4800005  72.1500015
  47.1000004  47.9300022  73.7500048  47.9800034  48.4500027  74.1100025
  45.9400034  48.2700014  74.7400045  46.2100029  47.8000021  75.6800032
  45.0300026  47.7900028  74.3600035  45.6300020  49.7000027  75.0900030
  45.5000019  50.1900005  74.1300058  44.4099998  50.0000000  75.9400034
  44.4300032  49.4500017  76.8900013  44.2600012  51.0700035  76.1000013
  43.5300016  49.6100044  75.4200029  46.8300009  50.3200006  75.8300018
  47.2100019  49.6500015  76.6000032  47.6700020  50.5000019  75.1600027
  46.4700031  51.1600018  76.4300013  47.3900032  46.3700008  73.7600040
  48.3200026  45.8600044  74.3500042  46.6600037  45.6200027  72.8600025
  45.8600044  46.0100031  72.3900032  46.9400024  44.2100000  72.5300026
  47.2500038  43.7000036  73.4400034  45.5900002  43.6199999  72.1100044
  45.6900024  42.6200008  71.6900015  45.1100016  44.2600012  71.3700056
  44.7200012  43.4899998  73.3500051  44.6000004  44.4000006  73.9300013
  45.2600002  42.8700018  74.0800047  43.3500004  42.8500032  72.9700041
  43.2300043  41.6800022  73.3800030  42.4900007  43.5000038  72.3200035
  48.1000042  44.0200043  71.5500021  48.7700033  43.0200005  71.6100025
  48.4300041  45.0400019  70.6800032  47.8000021  45.8200026  70.6100035
  49.6700001  45.1200008  69.9600029  49.8600006  44.2500019  69.3400049
  49.6100044  46.3000011  69.0100050  49.5800018  47.2500038  69.5600033
  48.7200022  46.3200045  68.3700037  51.0900021  46.4600039  67.9900026
  50.9300041  45.2400017  70.9400034  51.8600035  44.3700027  70.9000015
  50.8500004  46.2600040  71.8700027  50.1600027  46.9800043  71.8100023
  51.9100046  46.4000034  72.9700041  52.8100014  46.5600014  72.3700047
  51.6500044  47.6700020  73.7800026  51.6600037  48.5500002  73.1400013
  50.7100010  47.6600027  74.3300056  52.5200033  47.7500010  74.4400024
  52.1800041  45.0600004  73.8000011  53.2700014  44.7700024  74.2200041
  51.1800003  44.2000008  73.8500023  50.2800035  44.3700027  73.4100056
  51.2700033  42.9200029  74.5600033  51.9000006  42.9400015  75.4500055
  49.8700047  42.4600029  74.9700022  49.3700027  42.3800039  74.0100050
  49.3600035  43.1599998  75.6200027  49.8600006  41.1000013  75.6100035
  50.6000042  40.8900023  76.5500021  49.2900038  40.1900005  74.9800014
  51.9800043  41.7900038  73.7500048  52.8800011  41.1600018  74.2600012
  51.6700029  41.6100025  72.4700022  50.8700037  42.0700026  72.0600033
  52.5200033  40.8100033  71.6300011  52.5900030  39.8900008  72.2200012
  51.8400002  40.4800034  70.3000021  52.5300026  39.9600029  69.6400023
  51.4400005  41.3199997  69.7300053  50.6200027  39.6200013  70.5600023
  49.4700003  39.9900007  70.4100037  50.8900023  38.4800029  70.9400034
  53.9700031  41.3600016  71.4300013  54.9600029  40.6000042  71.5100050
  54.1100025  42.7100039  71.2600040  53.3900023  43.4000015  71.1400032
  55.4300022  43.3900023  71.2100029  55.9900045  43.0200005  70.3500032
  55.2200031  44.9100018  71.1100054  54.6800041  45.1400042  72.0300055
  54.4700003  44.9800014  70.3300047  56.3500023  45.9300041  70.9800053
  56.9800043  45.7200003  70.1200056  56.9000006  45.9600019  71.9200039
  55.8000040  47.3800039  70.7600021  55.0700045  47.5400019  71.5500021
  55.3900003  47.3200035  69.7500038  56.9200039  48.3800030  70.7500029
  57.1100044  48.7600040  69.8300028  57.4000025  48.9700031  71.8400049
  57.0900011  48.7000036  73.0200052  56.6400003  47.8000021  73.1600046
  57.3000050  49.3500042  73.7600040  58.1200027  50.0200033  71.6800022
  58.2700014  50.4100037  70.7600021  58.2800007  50.6300020  72.4800014
  56.3200045  43.0700016  72.4400043  57.5400019  43.0900002  72.3400021
  55.8300018  42.8299999  73.6700058  54.8500013  43.0000019  73.8300037
  56.5700006  42.2700024  74.7500038  57.6000023  42.6100016  74.7600031
  55.9000015  42.8200006  76.0300016  54.8100042  42.8200006  75.9700060
  56.2100029  42.1800041  76.8600035  56.3100004  43.8100004  76.1900043
  56.6000032  40.7400036  74.7700024  57.6300049  40.1300001  75.0200033
  55.5900049  40.0200033  74.2700052  54.7300005  40.4200029  73.9200020
  55.7000017  38.5100007  74.1600037  56.0100031  38.0500007  75.0900030
  54.4300032  37.9200029  73.6500025  54.2900038  38.4000015  72.6700020
  53.6000013  38.3400011  74.2100048  54.4200039  36.4100027  73.7200022
  54.4600010  35.8600020  74.8200035  54.3200016  35.8100009  72.5900030
  56.8400049  38.0400014  73.1900024  57.6700020  37.1700025  73.5400057
  56.9800043  38.6800027  72.0200014  56.2700033  39.3800020  71.8600035
  58.1200027  38.5000014  71.1000013  58.1300020  37.4300027  70.9100056
  57.8000021  39.1100025  69.7500038  57.8200006  40.1600027  70.0200033
  56.8100023  38.7400007  69.4800043  58.7900019  38.7500024  68.5700035
  59.7200012  39.3200016  68.7000036  59.2000008  37.2700024  68.4800053
  58.3800030  36.5400028  68.5000038  59.7500038  37.2400022  67.5500011
  59.6800041  36.9700027  69.4200039  58.1500006  39.1000009  67.2300053
  57.1000004  38.7900019  67.2200012  58.1800032  40.1900005  67.1900034
  58.7300014  38.6800027  66.4000034  59.4400024  39.0400028  71.6200018
  60.4800034  38.3800030  71.4500046  59.3700027  40.1100016  72.3400021
  58.5100031  40.5800009  72.5800037  60.6700039  40.6500006  72.9300022
  61.3600016  40.7000017  72.0900011  60.5000019  42.0300007  73.4900045
  59.8600006  41.9400024  74.3600035  61.4800024  42.4500036  73.7100029
  59.9700022  42.6200008  72.7500057  61.2800026  39.6900010  73.9800024
  62.4700022  39.4400024  73.9700031  60.4500008  39.2300010  74.9000025
  59.4900036  39.5400023  74.7800016  60.7600021  38.2800007  75.9700060
  61.6100025  38.6400008  76.5600014  59.5800018  38.0800009  76.8300056
  59.7600031  37.2000027  77.4600029  58.6900043  37.9000020  76.2300014
  59.3600035  39.3700027  77.7400017  59.1300011  40.2500010  77.1300030
  60.3100014  39.6300030  78.1900024  58.2400036  39.2300010  78.7700033
  57.3400021  39.0400028  78.1800032  57.9700041  40.2100039  79.1900015
  58.6000013  38.2300019  79.8200035  59.3400049  38.6500025  80.5000019
  58.8800049  37.3000026  79.3400049  57.3700047  37.9000020  80.5900002
  56.9100046  38.7600017  80.8400059  56.6700029  37.3400021  80.1300049
  57.6100016  37.3800015  81.4300060  61.1400032  36.8900013  75.4700041
  61.9100046  36.1700010  76.0900021  60.8400011  36.5900016  74.2100048
  60.4600048  37.3600006  73.6800051  61.1200047  35.3700018  73.5700035
  61.1600018  34.5600009  74.3100023  60.0500011  34.9700022  72.4900055
  59.9500036  35.7100010  71.7000055  59.0700006  35.0400019  72.9600048
  60.1800013  33.5300016  71.9600058  59.6800041  32.5100017  72.7600050
  58.9600039  32.7000022  73.5400057  59.8600006  31.1700010  72.3200035
  59.3800020  30.3700018  72.8600025  60.6300020  30.8400011  71.2100029
  60.7300043  29.5400023  70.8600044  61.6200018  29.3300009  70.5800056
  61.1600018  31.9000006  70.4700041  61.7700052  31.6800022  69.6100044
  60.9600019  33.2800007  70.8300018  61.3700008  34.0500021  70.2100039
  62.4300051  35.4000020  72.8100014  63.3400011  34.5800018  73.0400038
  62.6700020  36.4800024  72.1000051  61.8300009  36.9700027  71.8300056
  64.0400028  36.7300010  71.5700054  64.4100046  35.8700013  71.0000038
  63.9700031  37.9100013  70.5800056  63.5700035  38.7500024  71.1500025
  65.3300047  38.4100008  70.0300026  65.8900023  37.6400018  69.5100021
  65.1000023  39.1200018  69.2500019  65.9600019  38.8000011  70.8300018
  63.1500053  37.5100017  69.3500042  62.1800041  37.1200013  69.6400023
  63.7300014  36.7100024  68.8900042  62.9200029  38.6400008  68.1900024
  63.8200045  38.7800026  67.5800037  62.1300030  38.3000016  67.5200033
  62.6700020  39.5900011  68.6600018  65.0100040  36.9700027  72.7200031
  66.1300039  36.4800024  72.6200056  64.7200012  37.6300025  73.8100052
  63.8500023  38.1300020  73.9300013  65.6700039  37.8100014  75.0200033
  66.5900040  38.1000018  74.5100021  65.2300024  39.0800023  75.8500051
  65.9400034  39.1700029  76.6700029  64.2100048  38.9600015  76.1900043
  65.5800009  40.6200027  74.8700047  65.8700037  36.5600014  75.8900023
  66.6600037  36.5800023  76.8100023  65.1300049  35.4600024  75.6200027
  64.3100023  35.6800008  75.0700045  65.3500032  34.0500021  76.1200047
  65.8000040  33.9700007  77.1000051  64.0100050  33.2900023  76.3100052
  64.1800022  32.2300005  76.1600018  63.2700014  33.4300017  75.5100060
  63.3300018  33.4900022  77.6600027  62.4100018  32.9300022  77.5500059
  63.1300020  34.5500016  77.7600050  64.1300011  32.9600024  78.8400030
  64.2300034  31.7000008  79.0000057  64.6600008  33.7800026  79.6100044
  66.3200045  33.2700014  75.1400042  67.1400023  32.4600005  75.6000042
  66.3300037  33.6300015  73.8600016  65.5800009  34.2100024  73.5300016
  67.1200037  32.8700018  72.8400040  67.3300028  31.8700004  73.1800032
  66.3400030  32.5700021  71.5800047  67.0500040  32.0600009  70.9300041
  66.0800028  33.4700012  71.0100031  65.2800035  31.5200019  71.8400049
  65.5700016  30.3500009  71.5800047  64.1100025  31.8400025  72.3400021
  63.8900042  32.7900004  72.6000023  63.5500050  31.0400009  72.6000023
  68.5400009  33.4300017  72.6800013  69.4700050  32.6600027  72.6700020
  68.6800051  34.7500014  72.5500011  67.8800011  35.3600025  72.4700022
  70.0200033  35.4900026  72.4200058  69.7200012  36.3800025  71.8800020
  70.5100012  36.0400009  73.8000011  71.4600039  36.5200019  73.5900021
  70.6500053  35.2000022  74.4900036  69.5100021  37.0100021  74.4000053
  68.6300039  36.4300013  74.6600056  69.1700029  37.7500010  73.6800051
  70.1300049  37.7100015  75.6300020  71.1900043  38.2700014  75.5600023
  69.5000029  37.8100014  76.7800045  68.5500050  37.4900007  76.8700027
  69.9400043  38.3600020  77.4900055  70.9900045  34.7600007  71.4500046
  70.5900049  34.5900011  70.3100014  72.1900034  34.2700005  71.8500042
  72.5000048  34.3600011  72.8100014  73.2800055  33.6200023  71.1000013
  73.3000040  34.1800022  70.1700020  74.6200037  33.6800027  71.7700052
  75.0700045  34.6700025  71.8000031  75.3000021  33.0900025  71.1300039
  74.6900034  33.3300018  73.2600021  73.6400032  33.1800008  73.9500046
  75.8500051  33.1700015  73.6900043  72.9200029  32.2100019  70.5800056
  73.5700035  31.7100024  69.6600056  71.8200016  31.6100025  71.1200047
  71.5000057  31.8400025  72.0600033  71.0800028  30.5200005  70.4100037
  71.7400026  29.6700025  70.2700043  69.8900032  30.0200009  71.2200022
  69.3300056  29.3000007  70.6400013  69.2400026  30.9100008  71.3200045
  70.2500010  29.3500018  72.3400021  70.4000044  30.0100017  73.0200052
  70.5100012  30.9300017  68.9900017  70.3700018  30.0300026  68.1500053
  70.3000021  32.2400022  68.6500025  70.7200050  32.9700017  69.2000055
  69.9100018  32.6800013  67.2900009  70.2100039  31.9500017  66.5500021
  68.3900023  32.8700018  67.2400045  68.2000017  33.2900023  66.2400055
  67.6600027  31.5000010  67.3600054  67.6000023  31.2400007  68.4200048
  66.7000055  31.6300011  66.8600035  68.2300043  30.7600021  66.8100023
  67.7600050  33.8000011  68.3100033  68.1900024  34.8100019  68.2300043
  67.9000044  33.3600020  69.2900038  66.2100029  34.1300011  68.2000017
  65.9700012  34.5000005  67.2100019  65.7500029  33.1700015  68.4200048
  65.9900045  34.8900008  68.9500046  70.6000042  33.9500022  66.7300034
  70.7500029  34.0400004  65.5200052  71.2000036  34.8100019  67.5600052
  71.1900043  34.6200013  68.5500050  72.0000029  35.9300017  67.1000051
  72.5700045  35.5900025  66.2300014  71.0600042  36.9500017  66.4600039
  70.1500034  36.9300008  67.0500040  70.8500051  36.6700006  65.4400015
  71.6300011  38.2800007  66.4800024  70.9500027  38.8900018  66.2300014
  72.9500055  36.6500020  68.1400013  72.5700045  36.7300010  69.2800045
  74.1900015  37.0900011  67.7200031  74.5100021  36.9400024  66.7800045
  75.1300049  37.7800012  68.6300039  75.2400017  37.1100020  69.4800043
  76.5200043  37.7100015  68.0700016  76.7900038  36.7300010  67.6600027
  77.2500038  38.0200028  68.8200045  76.6400051  38.6000013  66.9600010
  76.0600042  38.2400012  66.2900019  74.6100044  39.1800022  69.0300035
  75.2100039  39.8400021  69.8800039  73.6100054  39.7500014  68.3500051
  73.1100035  39.0800023  67.7800035  73.1900024  41.1800003  68.3000040
  74.0200043  41.7700005  68.6900043  72.9100037  41.6499996  66.8800020
  72.8300047  42.7300024  66.7600012  71.9600058  41.2800026  66.5000010
  74.0600014  41.2700033  65.9600019  73.8600016  41.5900040  64.9300051
  74.0100050  40.1900005  65.8600044  75.4900026  41.7700005  66.4000034
  75.8000040  41.4700031  67.4000025  75.4600048  42.8500032  66.4800024
  76.5800047  41.3900042  65.3500032  76.6800022  40.3100014  65.2100039
  77.5500059  41.6200018  65.7900047  76.3700056  42.1200037  64.0600014
  77.0100021  41.8300009  63.3300018  75.4600048  41.9900036  63.6200047
  76.5700054  43.1000042  64.2200041  72.0000029  41.4499998  69.2200041
  71.5100050  42.5699997  69.3200016  71.5400028  40.5299997  70.0500011
  72.0500040  39.6700025  70.1700020  70.3100014  40.6599998  70.9000015
  69.7200012  41.3600016  70.3100014  69.6100044  39.2500019  70.8700037
  68.6700010  39.3000031  71.4100027  70.2700043  38.6500025  71.4900017
  69.2700052  38.7500024  69.4700050  70.1400042  38.5900021  68.8200045
  68.5600042  37.4000025  69.6200037  67.9000044  37.1300006  68.7900019
  69.3100023  36.6100025  69.4900036  68.0900049  37.3000026  70.5900049
  68.3400011  39.6900010  68.7400055  67.9100037  39.1600013  67.8900051
  67.4400043  39.9000025  69.3100023  68.9200020  40.5800009  68.4700012
  70.5700016  41.2300014  72.2900057  69.6900034  41.9800043  72.8100014
  71.6700029  40.8100033  72.9400015  72.2300053  40.1200008  72.4600029
  72.1600056  41.1500025  74.2900038  71.5200043  40.6800032  75.0300026
  73.5900021  40.6200027  74.4000053  74.1600037  41.2100029  73.6800051
  73.6300039  39.5400023  74.2600012  74.3800020  40.7500029  75.7800055
  73.9000034  40.0699997  76.4700031  74.3700027  41.8100023  76.0500050
  75.8100033  40.3299999  75.6500053  76.2400055  40.5100012  76.6500044
  76.2800026  40.9800005  74.9100018  75.9300041  38.8100028  75.3400040
  75.2600050  38.6100030  74.5000029  75.5100060  38.2700014  76.1800051
  77.3100042  38.3200026  75.0400019  77.8200054  38.1800008  75.9000015
  77.3200035  37.3500013  74.7600031  77.7700043  38.9400029  74.3900013
  72.0700026  42.6700020  74.5900059  71.6500044  43.0299997  75.6900024
  72.5000048  43.4500027  73.5900021  72.9700041  43.0200005  72.8100014
  72.4000025  44.9100018  73.6000013  73.1100035  45.3299999  74.3100023
  72.7900028  45.4800034  72.1500015  72.0100021  45.1800013  71.4600039
  73.7200022  45.0400019  71.7900038  73.0900049  46.9300032  72.1900034
  74.0700054  47.0900011  72.6300049  72.2800016  47.4400043  72.7200031
  73.0900049  47.3800039  70.8000040  74.0300035  46.9600010  70.0500011
  72.1200037  48.0300045  70.3800011  71.0200024  45.4300022  73.9900017
  70.9700012  46.3800001  74.8100042  69.9800014  44.6700001  73.5700035
  70.1800013  43.8600016  73.0000019  68.5800028  45.0200033  73.9300013
  68.5300016  46.0900021  74.0900040  67.6000023  44.6300030  72.7900028
  66.6200018  44.9900007  73.0900049  67.5900030  43.5400009  72.7900028
  67.7600050  45.2500010  71.1300039  68.1700039  44.3700027  75.2300024
  67.4300051  44.9300003  76.0100031  68.4300041  43.0900002  75.3800058
  69.2000055  42.8000021  74.8100042  67.9500055  42.3200035  76.4500046
  66.8700027  42.4400043  76.5300035  68.3500051  40.8900023  76.0700035
  68.0900049  40.1700020  76.8400049  69.4300032  40.7500029  75.9600019
  67.6100016  40.3299999  74.5700026  68.5600042  42.7100039  77.7900028
  67.9800034  42.3200035  78.8100052  69.7100019  43.4400034  77.7900028
  70.1400042  43.7500000  76.9200039  70.2800035  44.0700006  79.0500021
  70.6500053  43.3200026  79.7600031  71.5600014  44.8600006  78.6800051
  71.1800051  45.5000019  77.8800058  72.3300028  44.1700029  78.3300018
  72.1500015  45.7300043  79.8200035  72.3000050  45.0000000  80.6100082
  71.5200043  46.5700006  80.1399994  73.5300016  46.2300014  79.4600058
  73.7500048  46.6200018  78.3000040  74.4200039  46.1600018  80.3800011
  69.3000031  45.0800037  79.7400045  69.3100023  45.3100014  80.9400082
  68.4100056  45.7100010  78.9800024  68.4600019  45.5800009  77.9800034
  67.5200033  46.8200016  79.3300056  68.0000019  47.3200035  80.1800060
  67.3700047  47.7900028  78.1300020  67.1300030  48.7700033  78.5700035
  66.5500021  47.5700045  77.4600029  68.6200047  48.1100035  77.2700024
  69.0000010  47.2000027  76.8100023  69.4500017  48.4500027  77.8900051
  68.3000040  49.1600037  76.2300014  68.2000017  50.1800013  76.6300058
  67.3700047  48.8600016  75.7500029  69.5000029  49.2700005  75.2600050
  69.4400024  48.4000015  74.6100044  70.4100037  49.2900038  75.8400059
  69.4700050  50.5200005  74.5000029  69.7700024  50.2900028  73.5500050
  68.5000038  50.7700014  74.3600035  69.9600029  51.2900019  74.9200058
  66.1900043  46.4300013  79.9300051  65.7200050  45.2900028  79.7000027
  65.4900026  47.2900009  80.6900024  66.0600042  48.4400034  81.4700031
  65.8400011  49.3700027  80.9500027  67.1300030  48.2700014  81.5700054
  65.3100014  48.3800030  82.8000069  65.3400040  49.3800020  83.2200050
  65.4700041  47.5600004  83.5000038  63.9200020  48.0800009  82.3200035
  63.4000015  48.9000034  81.8100071  63.2600021  47.7200031  83.1100082
  64.1500044  46.9600010  81.1900043  64.2100048  45.9500027  81.6100025
  63.0600023  46.9300032  80.0500011  63.3200026  47.2600031  78.8700056
  61.8600035  46.5799999  80.5300045  61.7200041  46.5700006  81.5300083
  60.8400011  45.9100008  79.6500015  61.3300037  45.0600004  79.1700029
  59.7900009  45.1800013  80.5800056  59.1900015  45.9700012  81.0300064
  60.2700043  44.5700026  81.3500023  58.8100004  44.2300034  79.8800039
  58.3500051  44.7900009  79.0600014  59.4200039  42.9200029  79.2900038
  60.3500032  43.0700016  78.7300014  59.6100044  42.2100019  80.1000023
  58.7800026  42.4500036  78.5500050  57.7300024  43.8100004  80.8800030
  57.4000025  44.6300030  81.5000057  56.8900013  43.3900023  80.3200054
  58.0900049  43.0100012  81.5300083  60.2100039  46.8600035  78.5900021
  60.0300026  46.4600039  77.4200058  60.2200031  48.1700039  78.9200020
  60.4300022  48.3200026  79.8900032  59.9400043  49.3700027  78.0800056
  59.0600014  49.1400003  77.4700022  59.7400045  50.6300020  78.9900017
  59.6800041  51.4700031  78.3000040  60.7100010  50.8200026  79.4700050
  58.6800051  50.6600046  80.0900078  58.9700031  49.9700022  80.8800030
  58.6800051  52.0900011  80.6100082  59.7200012  52.3500013  80.8300018
  58.1700039  52.7600002  79.9200058  58.1700039  52.0800018  81.5700054
  57.4100018  50.2300024  79.4400024  56.6300011  50.4600000  80.1700020
  57.2900009  50.8800030  78.5800028  57.4400043  49.1800022  79.1700029
  60.9900045  49.7900009  77.0000029  60.6300020  50.4000044  76.0100031
  62.2300053  49.5200014  77.2800016  62.2900009  48.8100004  78.0000019
  63.2200050  49.6200037  76.2200022  62.9400015  50.4000044  75.5100060
  64.4800043  50.1500034  76.8400049  65.3500032  49.9500036  76.2200022
  64.7400045  49.6400023  77.7600050  64.4800043  51.6200018  77.1300030
  65.4900026  51.7900038  77.5000048  63.8000011  51.7600012  77.9700041
  64.1000032  52.5900030  75.9200048  63.1600046  53.3700037  76.0800028
  64.7800016  52.5900030  74.9100018  63.4300041  48.3100033  75.4200029
  63.5400009  48.3800030  74.1800022  63.5600042  47.1800041  76.1500025
  63.7300014  47.2500038  77.1500015  63.4800053  45.8300018  75.5600023
  64.4700050  45.7500029  75.1000023  63.2800007  44.9200010  76.7900038
  62.3700047  45.1000023  77.3600054  64.1600037  45.0400019  77.4300051
  63.2900047  43.4100008  76.4000034  64.2100048  43.3300018  75.8100033
  62.4300051  43.0600023  75.8200026  63.4500027  42.4100018  77.5800037
  63.3900023  41.3800001  77.2300053  62.6300049  42.5200033  78.2800055
  64.7000027  42.6700020  78.4800053  64.7700024  43.7100029  78.8000059
  65.5600023  42.3600006  77.8900051  64.7800016  41.7300034  79.6500015
  63.9700031  41.9099998  80.2200031  64.9200010  40.7700014  79.3500042
  65.5600023  42.0200014  80.2200031  62.4800014  45.6400013  74.4500017
  62.7700043  45.0800037  73.4000015  61.2700033  46.0200024  74.7800016
  61.0700035  46.2500000  75.7400036  60.1600027  45.7800007  73.7700033
  60.2700043  44.8200035  73.2900047  58.8500023  45.7400036  74.5700026
  58.0300045  45.5400038  73.8900042  58.6500025  46.6600037  75.1100016
  58.9400005  44.6600008  75.5100060  59.0100050  45.0600004  76.3900042
  60.0800037  46.8500042  72.6400042  59.3400049  46.5799999  71.6900015
  60.9700012  47.8700018  72.7200031  61.5000010  47.9700041  73.5700035
  61.3100052  48.8100004  71.6100025  60.5900049  48.7300014  70.8000040
  61.3400030  50.2200031  72.2000027  62.0600033  50.2400017  73.0200052
  60.4300022  50.5000019  72.7100039  61.5000010  51.3100004  71.2600040
  60.4800034  52.0900011  70.6900024  61.0500050  53.1400013  70.1500034
  60.6000042  53.8900042  69.5200014  62.3700047  53.0500031  70.2100039
  63.0600023  53.6100006  69.7300053  62.6600027  51.9100046  70.9200048
  63.6500025  51.6300011  71.2600040  62.6800013  48.5200024  70.8800030
  62.7300024  48.5800028  69.6300030  63.7900019  48.1600046  71.5400028
  63.8900042  48.4700012  72.5000048  65.0900030  47.7300024  70.9000015
  65.2900028  48.5400009  70.2000046  66.1800051  47.7200031  71.9400024
  65.8700037  47.1600008  72.8300047  66.3200045  48.7400007  72.2900057
  67.8400040  47.2500038  71.3600016  64.9100018  46.4700031  70.1000023
  65.3000021  46.5799999  68.9200020  64.1800022  45.4400015  70.6300020
  63.8300037  45.4500008  71.5800047  63.9200020  44.1700029  69.8500013
  64.8700047  43.8800001  69.4000053  63.5200024  43.0100012  70.8500051
  62.6600027  43.3700037  71.4200020  63.0200052  41.7900038  70.0800037
  63.0100012  40.9000015  70.7000017  62.0000029  41.9600010  69.7200012
  63.6400032  41.4100027  69.2600012  64.7200012  42.6300001  71.7700052
  64.2800045  41.9900036  72.5300026  65.0300026  43.5700035  72.2300053
  65.9200048  41.8700027  71.1700010  66.6000032  41.6700029  72.0000029
  65.6000042  40.9200001  70.7500029  66.5000010  42.4800014  70.4600048
  63.0700016  44.2500019  68.5900021  62.9800034  43.3700037  67.7100039
  62.2800016  45.3500032  68.5000038  62.4500036  46.0000038  69.2500019
  61.4900017  45.7100010  67.3300028  60.9700012  44.7700024  67.1000051
  60.4400015  46.8600035  67.7200031  61.0300016  47.7700043  67.6900053
  59.7400045  46.7800045  66.8800020  60.0000048  46.8200016  68.7100029
  62.1100044  46.0300016  65.9300041  61.5000010  45.8900023  64.8600054
  63.4100008  46.3800001  65.9700012  63.7900019  46.6300011  66.8800020
  64.2700052  46.6100025  64.8600054  63.9900017  45.8800030  64.1100025
  64.1000032  48.0500031  64.2800045  64.4500017  48.8200045  64.9500036
  63.0500031  48.1700039  64.0000010  65.0800037  48.3400011  63.0800009
  65.9700012  47.7300024  63.2300043  65.3700018  49.3900013  63.1000042
  64.4400024  48.1000042  61.7400026  64.2600012  49.0500021  60.9500027
  64.0800047  46.9099998  61.5200043  65.7900047  46.3700008  65.3700018
  66.6000032  47.3000002  65.6000042  66.1200047  45.0500011  65.6400013
  65.4100037  44.3400002  65.7300043  67.5100040  44.6700001  66.0300016
  67.8100014  45.2800035  66.8900013  67.4700022  43.2500029  66.5700054
  68.4800053  43.0400038  66.9200039  66.6300011  42.9500008  67.7000046
  65.6000042  43.0100012  67.3400021  66.8900013  41.9200039  67.9200029
  66.8000031  43.6500025  68.5200024  67.1700048  42.2600031  65.4500008
  67.3600054  41.2200022  65.6900024  66.1900043  42.4800014  65.0300026
  67.8100014  42.6100016  64.6500015  68.6500025  44.9000025  65.0200033
  68.3500051  45.2300024  63.8600016  69.9200010  44.6400023  65.2600050
  70.2300024  44.5900011  66.2200022  70.8600044  44.5000029  64.1200018
  70.4900026  45.1500034  63.3300018  72.2000027  45.0900030  64.5300007
  72.9200029  44.8200035  63.7600040  72.5900030  44.6400023  65.4500008
  72.2700024  46.6100025  64.8700047  71.8500042  46.7300034  65.8700037
  71.7300034  47.1500015  64.0900040  73.6700058  47.1000004  64.8800039
  74.1800022  47.6000023  63.8600016  74.2600012  47.0200014  65.9600019
  71.0100031  43.1400013  63.3600044  70.7000017  42.0700026  63.8700008
  71.3800049  43.1700039  62.1100044  71.5800047  44.0900040  61.7400026
  71.8500042  41.9500017  61.3500023  71.0600042  41.2300014  61.1900043
  72.3200035  42.3699999  59.9200010  72.7800035  41.4800024  59.5200014
  73.1300020  43.0800009  60.0900030  71.2700033  42.8400040  58.9200020
  70.0800037  42.8400040  59.2600012  71.6100025  43.0800009  57.6800013
  72.5600052  42.9200029  57.3700047  70.9400034  43.4400034  57.0200014
  73.0900049  41.3500023  62.0700026  74.1900015  41.9099998  62.1300030
  72.9000044  40.0900030  62.4300051  71.9400024  39.7600007  62.3700047
  73.9700031  39.1800022  62.8300047  74.4800043  39.7700024  63.5900021
  73.3000040  38.0000019  63.6000013  72.8200054  37.3100019  62.9000044
  72.5600052  38.4000015  64.3000031  74.3200016  37.1900010  64.3300009
  75.2300024  37.7000022  64.9800014  74.2500019  35.9000015  64.2500019
  75.0100040  38.7600017  61.7300034  74.8600054  39.1700029  60.6000042
  76.1300039  38.1200027  62.1300030  76.2700033  37.8300023  63.0800009
  77.2700024  37.9100013  61.3000011  77.4300051  38.8000011  60.6800032
  78.4700060  37.5300026  62.2400045  79.4000053  37.2900009  61.7000008
  78.2600021  36.6100025  62.7700043  78.6800051  38.5900021  63.3200026
  79.5500040  38.2400012  63.8700008  77.8900051  38.5900021  64.0700054
  79.0300035  39.9100018  62.6100016  78.1200027  40.7800007  62.3600006
  80.2300072  40.1900005  62.4100018  77.0500040  36.7600012  60.3000021
  76.4000034  35.7700014  60.5800009  77.5700045  36.9500017  59.1200018
  78.0600023  37.8300023  59.0200043  77.4300051  36.0700011  57.9500008
  76.5000057  35.5200028  58.0500031  77.3600054  36.9300008  56.7300034
  78.3200026  37.4300027  56.5200043  76.7000055  37.7700019  56.9700050
  76.9900036  36.2400007  55.4400015  77.7600050  35.5000019  55.2100039
  77.0800018  36.9700027  54.6300030  75.4000044  35.5600023  55.3600025
  74.4000053  36.9700027  55.8400011  73.3200026  36.8600011  55.7500029
  74.6300030  37.1600008  56.8800020  74.6800041  37.8100014  55.2000046
  78.6600018  35.2000022  57.8000021  79.7200060  35.6800008  58.0500031
  78.4900045  33.9400005  57.3800039  77.3200035  33.1200027  57.4800014
  76.6900015  33.2300019  56.6100025  76.8000031  33.3800006  58.4000015
  77.7700043  31.7100024  57.4600029  77.0300055  31.0000014  57.0800018
  78.0900049  31.5300012  58.4800005  78.9500046  31.8000007  56.5700006
  78.5700035  31.6600013  55.5500031  79.6500015  30.9800005  56.7300034
  79.5600033  33.1300020  56.8000031  80.3200054  32.9300022  57.5500011
  80.2900028  33.6500025  55.5400038  79.9300051  34.6000028  54.8900032
  81.5300083  33.1800008  55.3500032  81.8200016  32.4800014  56.0300016
  82.2600079  33.3500028  54.0900040  82.3000050  34.3600011  53.6700010
  83.7700081  33.1600022  54.4600010  83.9700031  32.1900010  54.9300003
  84.3200016  33.0900025  53.5200024  84.0400028  33.8900018  55.2100039
  81.6700077  32.5100017  52.9000044  80.9100056  31.5600014  53.1400013
  82.1600056  32.7000022  51.6900015  82.8999996  33.4000015  51.6800022
  82.0800018  31.9100022  50.4800034  82.2800064  32.5700021  49.6200037
  83.1200027  30.8100009  50.5500031  83.0600071  30.3600025  49.5500040
  82.8800011  30.0000024  51.2300014  84.5700073  31.2000012  50.7900047
  85.2200031  30.4800010  51.5600014  85.0200081  32.1700025  50.1100016
  80.6800079  31.4000010  50.1900005  80.4699993  30.1700020  50.0600004
  79.7100019  32.3300004  50.0300026  79.9300051  33.2900023  50.2100039
  78.3200026  32.0200014  49.6700001  77.9800034  31.2400007  50.3400040
  77.4100018  33.2800007  49.9000025  76.3600016  33.1500006  49.6400023
  77.8200054  34.0900016  49.2900038  77.3400021  33.8300014  51.3100004
  78.3900023  33.9600015  51.6000032  76.5800047  35.1800013  51.3200045
  75.5400038  34.9100018  51.1700010  76.7200041  35.5300021  52.3400021
  77.0900059  35.8700013  50.6300020  76.6600037  32.8100014  52.2100019
  76.5600014  33.2500005  53.2000017  75.7200050  32.4500012  51.8100023
  77.2300053  31.8800020  52.2700024  78.2000017  31.4100003  48.2700014
  78.6500025  32.1000004  47.3000002  77.4500036  30.2600026  48.2100010
  76.9100046  29.5300007  49.3200016  76.4200020  30.0800014  50.1200008
  77.7500057  29.0100002  49.7700024  75.9900045  28.5300016  48.7000036
  75.0200033  29.0300012  48.7300014  75.9600019  27.5800014  49.2200041
  76.4200020  28.3200002  47.2900009  75.6000042  28.0400014  46.6300011
  77.2900057  27.6600003  47.2200012  77.0000029  29.6400023  46.9600010
  77.8600025  29.5200014  46.3100004  75.8200026  30.4400015  46.3600016
  75.2000046  31.3700008  46.9300032  75.5100060  30.0400019  45.1100016
  76.1200047  29.4200015  44.6000004  74.2900038  30.5100012  44.4300032
  74.2200041  31.5600014  44.6900034  74.4700050  30.5600023  42.9200029
  73.7300014  31.2500024  42.5000000  74.2100048  29.6200013  42.4400043
  75.6800032  31.0400009  42.3699999  75.8900023  30.6400013  41.5200043
  73.0700016  29.6500015  44.8300028  73.2500029  28.6300015  45.5300045
  71.8900013  29.8600006  44.2799997  71.7800045  30.6900024  43.7200022
  70.7100010  29.0100002  44.6200037  70.8600044  28.6300015  45.6200027
  69.4700050  29.8100019  44.5100021  68.7000036  29.0400004  44.4600010
  69.3900013  30.3300023  43.5600042  69.0400028  30.6500006  45.7700014
  69.3500042  30.0300026  46.6100025  69.9500036  31.8900013  45.8300018
  69.8900032  32.4900007  44.9300003  69.6600056  32.4800014  46.7100000
  70.9900045  31.5900016  45.8900023  67.5500011  31.1000013  45.9200001
  66.9900036  30.1700020  45.8000040  67.2900009  31.5600014  46.8700027
  67.3000050  31.8300009  45.1500034  70.5800056  27.7600002  43.7300014
  70.0900030  26.7900014  44.2799997  70.9200048  27.7700019  42.4800014
  71.1900043  28.6200023  42.0000029  70.5100012  26.6100001  41.5900040
  69.4500017  26.3800001  41.7100000  70.6900024  27.0500016  40.1300001
  71.7600012  27.2500014  40.0300026  70.3600025  26.2700009  39.4400024
  70.1400042  27.9700017  39.9400020  71.1900043  25.2000022  41.9099998
  70.6300020  24.1800022  41.4800024  72.3700047  25.2700019  42.5699997
  72.7200031  26.2100005  42.6999998  73.0800056  24.2000008  43.1700039
  73.5400057  23.6400008  42.3600006  74.1500044  24.9100018  43.9600039
  74.9100018  25.1200008  43.2300043  73.8300037  25.8200002  44.4600010
  74.6300030  24.2600012  44.7000027  72.2600031  23.3300018  44.1900015
  72.6700020  22.2600007  44.5500040  71.0700035  23.8500023  44.5300007
  70.8300018  24.7500014  44.1600037  70.1100016  23.2200003  45.4500008
  70.3200054  22.1600008  45.4400015  70.1800013  23.9000010  46.8700027
  69.3300056  23.5700011  47.4800014  69.9800014  24.9700022  46.7700005
  71.4900017  23.7200022  47.5700045  72.2000027  24.7100019  47.7900028
  71.9100046  22.5500011  47.9300022  68.7300014  23.1300020  44.9100018
  68.1100035  22.0600009  44.9100018  68.1700039  24.2300010  44.4800043
  68.7000036  25.0800014  44.5100021  66.8100023  24.2700005  44.0400028
  66.1000013  23.6200023  44.5600033  66.2900019  25.7400012  44.2400026
  65.2500010  25.8100009  43.8900042  66.9800043  26.4600015  43.8200045
  66.1400032  26.0100007  45.7000017  65.1000023  25.5300021  46.4300013
  64.4100046  24.7600007  46.1000013  64.9800014  25.8700013  47.7900028
  64.1200018  25.5300021  48.3500004  65.8800030  26.6700006  48.3700037
  65.7200050  26.9100022  49.4200039  66.9000053  27.2300005  47.6700020
  67.4800014  28.0300021  48.1000042  67.1100044  26.8800020  46.3600016
  67.8700018  27.2800016  45.7000017  66.5500021  23.8300014  42.6100016
  65.3800011  23.8100004  42.2200012  67.5400019  23.4200001  41.8600035
  68.4600019  23.5800004  42.2399998  67.4100018  22.8500009  40.5100012
  66.3700008  22.7400017  40.1999998  68.0900049  23.8400006  39.4700027
  69.1600037  23.8700008  39.7000027  67.8600025  23.5500002  37.9800010
  66.8200016  23.7700009  37.7200007  68.4300041  24.2400002  37.3600006
  68.2200050  22.5400019  37.8200006  67.5800037  25.3500009  39.6300030
  67.6800013  25.5400014  40.7000017  68.1300020  26.0400009  39.0100026
  66.5400028  25.4400015  39.3100023  67.9700041  21.4200020  40.3600025
  67.5100040  20.7400012  39.4600010  68.7600040  21.0100007  41.3400030
  68.9200020  21.6900015  42.0700026  69.4800043  19.7600007  41.3600016
  69.7100019  19.6200013  40.3000021  70.8000040  19.8400009  42.1500015
  71.2200022  18.8400006  42.2399998  70.6000042  20.0999999  43.1900024
  71.9800043  20.6200004  41.4700031  72.8600025  20.5599999  42.1099997
  71.6700029  21.6600013  41.4200020  72.2100019  20.1200008  40.1000023
  71.9300032  20.8100009  39.0900016  72.6700020  18.9600015  39.9900007
  68.6300039  18.5500014  41.7600012  69.0800047  17.4500012  42.0200014
  67.2800016  18.7900007  41.7600012  66.9400024  19.7500014  41.8100023
  66.2400055  17.7600014  41.7600012  66.7300034  16.9300008  41.2600040
  65.8500051  17.3700011  43.1500006  66.6800022  16.8700004  43.6700010
  65.0700045  16.6300011  42.9500008  65.4400015  18.3900011  44.0000010
  64.4800043  18.4000003  43.9800024  65.0900030  18.2700014  40.9400034
  64.6200037  19.4000006  41.0300016  64.6000051  17.4600005  39.9800014
  64.9400043  16.5100002  39.9300027  63.4900045  17.8400004  39.0300012
  63.5200024  18.9200008  38.8300014  63.5800028  17.0700014  37.6800013
  62.7900028  17.4300003  37.0300007  63.4100008  16.0400009  37.9800010
  64.9800014  17.0100009  37.0600009  65.6700039  16.6200006  37.8000021
  65.2700043  18.0300009  36.8200016  65.0700045  16.1600006  35.7900023
  64.1700029  16.2700009  35.1800013  65.0600052  15.2000010  36.2900019
  66.3600016  16.3600004  34.9800014  66.2200022  17.3200011  34.4800019
  66.5200043  15.6800008  34.1400027  67.5900030  16.3400006  35.8500028
  67.6300049  15.5400002  36.4600015  68.4600019  16.4400005  35.3500009
  67.6400042  17.2200012  36.3500023  62.0500040  17.6500010  39.6900010
  61.1700010  17.0100009  39.0700030  61.8500042  18.1600010  40.9500027
  62.6800013  18.5500014  41.3500023  60.6800032  17.9900014  41.8000031
  59.8300028  17.6600003  41.2000036  60.9800053  16.8400013  42.8400040
  61.2300014  15.9300005  42.2900009  60.0100040  16.6500008  43.3100033
  62.1600008  17.0800006  43.7800026  62.4500036  16.2300003  44.6900034
  62.7800035  18.1600010  43.6100006  60.2800035  19.3800008  42.4000025
  59.4800043  19.4700015  43.3500004  60.6800032  20.4700017  41.7900038
  61.2900019  20.2900004  41.0000038  60.1300049  21.8500018  42.1700001
  60.2200031  21.9200015  43.2500029  60.8400011  23.0400014  41.3900042
  60.5900049  22.9700017  40.3299999  60.4100037  24.3900013  41.9300032
  60.9800053  25.2600002  41.5900040  59.3600035  24.6500015  41.8200016
  60.5900049  24.3100023  43.0000019  62.3300028  22.8500009  41.6000032
  62.9000044  23.5500002  40.9700012  62.4100018  22.9300022  42.6800013
  62.6300049  21.8000007  41.5799999  58.6400032  22.0100021  41.9600010
  57.9400015  22.6100016  42.8299999  58.1500006  21.6000009  40.8300018
  58.6900043  21.0700011  40.1800013  56.6900015  21.5200019  40.5500031
  56.2000036  22.4900007  40.6300020  56.4300013  21.2400007  39.0300012
  55.3800011  21.0000014  38.9100027  56.9600010  20.3500009  38.7000012
  56.8600035  22.6300001  37.9400015  55.9200048  20.7100010  41.5900040
  54.7400045  20.9800005  41.8300009  56.5800047  19.6900010  42.2500038
  57.4500036  19.3700004  41.8300009  55.8900023  18.8000011  43.1900024
  54.8900032  18.4800005  42.8900003  56.6100025  17.4700010  43.3200026
  57.5900030  17.6300013  43.7800026  56.9300032  16.9200003  42.4300003
  55.8000040  16.5500009  44.2700005  54.7400045  16.5200007  43.9800024
  55.9100008  16.9200003  45.2900028  56.3800049  15.1300013  44.3200016
  57.3800039  15.0800002  44.7500038  56.4100027  14.7500002  43.3000040
  55.4600048  14.2300010  45.1600027  55.7700014  13.1900001  45.0300026
  54.3700027  14.2600012  45.0100040  55.7200003  14.6300006  46.5799999
  55.3000021  13.9300001  47.1900034  56.7200041  14.6600008  46.7200041
  55.5200005  15.5600011  46.9099998  55.7800007  19.5200014  44.4800043
  54.7300005  19.5100009  45.1200008  56.8100023  20.2600002  44.9100018
  57.6700020  20.2600002  44.3600035  56.7400026  21.1199999  46.1199999
  56.4300013  20.4200006  46.9099998  58.1400013  21.6800022  46.4300013
  57.9900026  22.5000000  47.1300030  58.5600042  22.1900010  45.5600023
  59.2200041  20.7700014  46.9700003  59.5200014  20.8100009  48.1500006
  59.8700047  20.0700021  46.1199999  59.5500040  20.1400018  45.1600027
  60.6900024  19.5500004  46.4200020  55.6400013  22.2500014  46.0100031
  54.8800039  22.5700021  46.9200039  55.6000042  22.8200006  44.8200035
  56.3100004  22.6500010  44.1300011  54.7500038  23.8600016  44.3600035
  54.8200035  24.5700002  45.1900005  55.1900005  24.3100023  42.9800034
  55.1700020  23.4800005  42.2800016  56.2400007  24.5900011  43.1100035
  54.3000031  25.3900003  42.4300003  54.3400049  26.7100024  42.8200006
  54.9500036  26.9400024  43.6800003  53.5900021  27.7300024  42.2399998
  53.5900021  28.7600017  42.5600004  52.8200006  27.3900008  41.1300039
  52.1500015  28.2900023  40.3999996  52.2300005  29.1000009  40.9100008
  52.8400040  26.0500002  40.6500006  52.2700024  25.8000016  39.7700024
  53.5600042  25.0800014  41.3100004  53.6100006  24.0800023  40.9100008
  53.2300043  23.4800005  44.2200041  52.3100042  24.3000007  44.4000006
  52.9800034  22.1900010  44.0799999  53.7500048  21.5400004  44.1400003
  51.6500044  21.6500020  44.0900040  50.9500027  22.4500012  43.8000011
  51.5300035  20.4900002  43.1300020  50.5300045  20.0600004  42.9900026
  51.9900036  20.6500006  42.1600008  52.0400047  19.6100008  43.5100031
  51.2200022  21.3600016  45.5100012  50.1000023  21.6200018  45.9000015
  52.0200014  20.6700015  46.3400030  52.9600048  20.4700017  46.0100031
  51.6100025  20.1100016  47.6700020  50.5300045  19.9000013  47.7300024
  52.1300030  18.6300004  47.8299999  51.8400002  18.2000005  46.8700027
  51.6100025  18.1500006  48.6700010  53.6400032  18.5200012  48.0700016
  53.7900019  18.8600004  49.0900040  54.1000032  19.2600012  47.4100018
  54.2900038  17.1300006  47.7800035  55.5400038  16.9600010  47.9600000
  53.4900045  16.2700009  47.3600006  51.8800020  20.9700012  48.9500046
  51.1300039  20.9200001  49.9300003  52.9200029  21.8000007  48.8600016
  53.5200024  21.8000007  48.0500031  53.5000038  22.4800014  50.0000000
  52.8700018  22.4300003  50.8800030  54.8300028  21.7700005  50.1900005
  55.1300049  22.1700001  51.1700010  54.7200012  20.6900001  50.2600002
  55.5300045  22.1000004  49.4300032  53.5600042  24.0100002  49.8900032
  54.3100023  24.5900011  50.6300020  52.8900003  24.5900011  48.9500046
  52.2200012  23.9700007  48.5100031  53.1200027  25.9000015  48.2200003
  53.9400005  25.8000016  47.5000000  51.8200016  26.0900021  47.4000025
  50.9800005  26.1900020  48.0800009  51.5900040  25.1800013  46.8600035
  51.8300009  27.3200011  46.5000010  52.8100014  27.4700022  46.0600042
  51.7100048  28.1900024  47.1600008  50.7400036  27.3800015  45.4500008
  49.7800016  27.0200014  45.8200026  51.0400009  26.8100023  44.5600033
  50.5200005  28.8900018  44.9500036  51.5000010  29.1900015  44.6000004
  50.3100014  29.6100020  45.7500029  49.4200039  28.9400005  43.9600039
  49.1400003  29.8600006  43.6700010  49.7100019  28.5900021  43.0600023
  48.6500025  28.4500003  44.3700027  53.4200048  27.0600009  49.1400003
  54.5000029  27.6900005  49.0600014  52.5500011  27.2900009  50.2100039
  51.6500044  26.8200016  50.1900005  52.7000046  28.4100008  51.1800003
  52.9600048  29.3000007  50.6100035  51.4100027  28.6900020  51.8400002
  51.0200024  27.8600001  52.4400043  50.6100035  28.9400005  51.1500025
  51.5200043  29.8600006  52.8800011  51.1100006  29.7300005  54.0400028
  51.9000006  31.0100007  52.5800037  53.9300013  28.2200003  52.1500015
  54.3500042  29.1400003  52.7900028  54.4500017  27.0400023  52.2200012
  54.1000032  26.2600017  51.6800022  55.6500006  26.6300011  52.9500008
  55.9100008  27.2500014  53.8000011  55.4400015  25.2600002  53.6800003
  55.1400042  24.5300007  52.9200029  56.6200018  24.7000003  54.4700003
  56.8200016  25.4000020  55.2800035  56.5900040  23.6400008  54.7100019
  57.5300026  24.6700001  53.8700008  54.2300034  25.4300022  54.6200037
  54.1100025  24.5100021  55.1900005  54.4600010  26.2200022  55.3400040
  53.4000015  25.7600021  54.0000010  56.8800020  26.6400003  52.0700026
  57.9800034  27.1300006  52.4100018  56.6900015  26.1800003  50.8800030
  55.8300018  25.6800008  50.6600046  57.6900005  26.0600019  49.8900032
  58.4700012  25.4500008  50.3400040  57.2700024  25.1600003  48.7300014
  56.3400030  25.5800009  48.3600044  57.0400047  24.1400003  49.0500021
  58.3300018  25.2400017  47.5400019  57.9800034  25.8400011  46.3600016
  56.9500017  26.1000013  46.1900043  58.9400005  26.0200024  45.3100014
  58.6700010  26.4700007  44.3600035  60.2800035  25.7800007  45.6100035
  61.0700035  26.1200023  44.9700022  60.6600046  25.1800013  46.8100023
  61.7200041  25.0000000  46.9900036  59.6700048  24.8700023  47.7400017
  59.8400021  24.3900013  48.6900043  58.4200048  27.3400021  49.4600010
  59.6200037  27.5900006  49.4500017  57.6400042  28.2800007  48.9300013
  56.6600037  28.0500007  48.8000011  58.0600023  29.5900011  48.4700012
  58.7300014  29.3800020  47.6400042  56.8000031  30.2700019  47.8299999
  57.1000004  31.2800026  47.5700045  55.9600019  30.2200007  48.5200024
  56.3600016  29.5800018  46.5500021  56.0900021  28.5700011  46.8100023
  55.0700045  30.2800012  46.1000013  54.2600012  29.8100019  46.6800022
  55.1300049  31.3600016  46.2700033  54.9400043  30.1400018  45.0200033
  57.3100042  29.6800017  45.3400040  58.1300020  28.9800024  45.5400038
  56.9300032  29.2500019  44.4200039  57.6400042  30.6900024  45.1000023
  58.7600040  30.3900003  49.5800018  59.7500038  31.1000013  49.3100023
  58.3800030  30.2200007  50.8300018  57.6200008  29.5800018  51.0200024
  59.1500044  30.8100009  51.9400024  58.5900021  30.5300021  52.8500032
  59.2600012  31.8700004  51.7100048  60.5500031  30.2200007  52.0200014
  61.4300013  30.9700012  52.2300005  60.7000017  28.9500022  51.7100048
  59.9100018  28.3300018  51.6000032  62.0400047  28.3200002  51.8700027
  62.4300051  28.6000013  52.8500032  61.8400049  26.7400002  51.9100046
  61.4700031  26.4300013  50.9300041  61.0500050  26.3600016  52.5400019
  63.1800032  26.0600019  52.1900034  63.9200020  26.5700006  51.5900040
  63.1500053  24.9900007  52.0000029  63.8700008  26.2400007  53.8900042
  65.2700043  25.0300002  53.8100004  64.8400021  24.0400004  53.9900017
  65.7600021  24.9700022  52.8400040  65.9800053  25.3200006  54.5900011
  62.9900026  28.8700008  50.7700014  64.1500044  29.0500021  51.0700035
  62.5600052  29.2100024  49.5800018  61.5700006  29.1200018  49.3500042
  63.4100008  29.7600007  48.5200024  64.3500042  29.2100024  48.4500027
  62.8000021  29.5800018  47.1400023  61.8500042  30.1300025  47.1300030
  62.4000025  28.5700011  47.0300007  63.6000013  30.0400019  45.9500027
  64.3100023  29.0600014  45.3000021  64.3100023  28.0500007  45.6900024
  65.0200033  29.4400024  44.1900015  65.6600046  28.7000012  43.6900043
  64.9600029  30.7900023  43.7500000  65.5000019  31.0300016  42.8400040
  64.1700029  31.7400026  44.4200039  63.9700031  32.6800013  43.9499998
  63.5000038  31.3700008  45.6000042  62.9000044  32.0700026  46.1700010
  63.8000011  31.2600017  48.8400030  64.9700022  31.6100025  48.5900021
  62.9600048  32.0600009  49.5400047  62.0300007  31.7200017  49.7000027
  63.2400036  33.4100008  50.0000000  63.8900042  33.9100027  49.2600012
  61.9200039  34.1300011  50.3000021  61.4000034  33.4800005  51.0100031
  61.2100029  34.1300011  49.4800043  62.0900011  35.5900025  50.6900024
  62.7800035  35.6600022  51.5400028  62.7900028  36.3500023  49.5000029
  62.4600029  37.3900008  49.4700003  63.8600016  36.1700010  49.5200014
  62.4400043  35.9700012  48.5400009  60.7300043  36.1600018  51.0100031
  60.0500011  36.4300013  50.2000046  60.2500010  35.3800011  51.6000032
  60.8300018  37.1200013  51.5200043  64.0700054  33.4600019  51.3200045
  64.8400021  34.3900013  51.4600039  63.9200020  32.5000024  52.1800041
  63.1300020  31.8700004  52.1400023  64.7800016  32.3000026  53.3700037
  64.7600031  33.1700015  54.0200043  64.1700029  31.1900020  54.2200041
  64.1200018  30.3300023  53.5500002  63.1600046  31.4800024  54.4900036
  65.0100040  30.7100010  55.3700018  64.8800039  31.2700009  56.6300011
  64.4700050  32.2700024  56.6500044  65.5600023  30.8000016  57.7500010
  65.7600021  31.2900019  58.6900043  66.3500023  29.6200013  57.5700045
  67.0700026  29.2400002  58.6600018  67.6300049  28.4600019  58.5400009
  66.2800026  28.9000010  56.4200020  66.9500017  28.0800009  56.2500048
  65.6200027  29.4600010  55.2800035  65.6700039  28.8800025  54.3700027
  66.2200022  31.9400024  52.9200029  67.2400045  32.3700023  53.5100031
  66.3400030  31.1600018  51.8500042  65.5000019  30.6900024  51.5500021
  67.6800013  30.8300018  51.3000011  68.3700037  30.6400013  52.1200037
  67.6600027  29.4500017  50.6000042  68.5800028  29.4000006  50.0200033
  66.7900038  29.4900012  49.9500036  67.6300049  28.1900024  51.5000010
  67.6600027  27.4000025  50.7600021  66.6800022  28.2100010  52.0200014
  68.7900019  28.1100011  52.3900032  69.9200010  28.1900024  51.8600035
  68.5900021  28.0600023  53.6500025  68.3100033  31.9700027  50.4700041
  69.3800020  32.3400021  50.7000017  67.4800014  32.6500010  49.6700001
  66.6200018  32.1500015  49.5300007  67.8900051  33.8500023  48.8400030
  68.7200022  33.5300016  48.2100010  66.7300034  34.4000006  47.9700041
  66.3400030  35.3300023  48.3800030  65.9400034  33.6600018  47.9500008
  67.0900011  34.7900009  46.5500021  68.3200026  35.4800010  46.3000011
  69.0200043  35.7100010  47.0800018  68.7100029  35.7900023  45.0000000
  69.6700048  36.2200022  44.7500038  67.8500032  35.4000020  43.9600039
  68.1800032  35.6700015  42.6800013  69.1000032  35.8700013  42.5000000
  66.5800047  34.7600007  44.2000008  65.9200048  34.5300007  43.3700037
  66.1400032  34.5600009  45.5600023  65.1300049  34.2400026  45.8000040
  68.4200048  35.0400019  49.7400045  69.5300055  35.5000019  49.6500015
  67.6600027  35.3100014  50.8100033  66.7700052  34.8400021  50.8400011
  68.0900049  36.4100027  51.7200041  68.3300018  37.2500014  51.0800028
  66.8900013  36.8200016  52.6300049  66.7500019  35.9700012  53.2900047
  67.3000050  37.6500010  53.2100010  66.0000038  37.0800018  52.0500040
  69.3600035  36.1200023  52.5900030  69.9300051  37.0500016  53.1400013
  69.8600054  34.9000025  52.5100040  69.3100023  34.1400027  52.1500015
  71.1300039  34.5300007  53.2600021  71.5100050  35.3800011  53.8300037
  70.7500029  33.4800005  54.3300009  71.7300034  33.1100011  54.6500015
  70.2100039  32.6400018  53.9100027  70.0600052  33.9600015  55.6100035
  69.5000029  34.8900008  55.4900026  70.8500051  34.1900015  56.3300037
  69.0500021  33.0600023  56.3700008  68.1700039  33.0600023  55.7200003
  68.5500050  33.4800005  57.2300005  69.5300055  31.6900015  56.7400026
  69.8600054  31.5100026  57.6900005  69.4600010  30.6100011  55.8800030
  68.8000011  30.5200005  54.7700024  68.2400036  31.3000011  54.4600010
  68.5900021  29.6000004  54.4300032  69.9300051  29.4500017  56.2100029
  70.3500032  29.4300008  57.1300030  69.7800016  28.7300014  55.5300045
  72.3500013  34.1000009  52.3700047  73.3900023  33.9500022  52.9800034
  72.1200037  33.9700007  51.0300016  71.1400032  34.0900016  50.7900047
  73.0900049  33.8200021  49.8800039  74.0200043  33.3900023  50.2600002
  72.6000023  32.7700019  48.8700008  73.3300018  32.7600026  48.0700016
  71.5900040  32.9600024  48.4900045  72.6300049  31.3800025  49.5200014
  71.9300032  31.3800025  50.3600025  73.5800028  31.2200022  50.0300026
  72.2700024  30.2200007  48.5100031  73.1700039  30.0500011  47.9000044
  71.5300035  30.5000019  47.7600002  71.7500019  29.0800023  49.2600012
  71.2600040  29.2300010  50.1200008  71.8200016  27.7700019  48.9300013
  72.3700047  27.3300004  47.8299999  72.7700043  27.8800011  47.0900011
  72.3300028  26.3300014  47.6800013  71.3600016  26.9400024  49.8800039
  70.7700014  27.3500013  50.5900002  71.5200043  25.9500003  49.8100042
  73.4500027  35.1800013  49.1400003  74.5600033  35.3100014  48.6700010
  72.5400019  36.1300015  49.2000008  71.7100048  35.8900023  49.7100019
  72.6200056  37.4600029  48.5400009  73.6100054  37.6100016  48.1000042
  71.6100025  37.4800014  47.3400021  71.5900040  38.4600019  46.8600035
  70.5900049  37.2700024  47.6900005  72.0800018  36.5500021  46.2400007
  71.8500042  35.1900005  46.1900043  72.4500036  34.7200012  45.0700045
  72.3900032  33.7500024  44.6000004  73.0600023  35.6900024  44.4300032
  73.6100054  35.5800009  43.6000013  72.9200029  36.8600011  45.1700020
  73.2600021  37.8500009  44.9400043  72.4100018  38.6200023  49.5700026
  71.2800026  39.1600013  49.7300005  73.3700037  38.8100028  50.4800034
  74.6000051  37.9800010  50.8400011  75.4600048  38.3200026  50.2500010
  74.3600035  36.9300008  50.6700039  74.8100042  38.2600021  52.3800039
  75.8400059  38.0900025  52.7000046  74.2200041  37.5500011  52.9600048
  74.4000053  39.7100019  52.5700045  75.1500034  40.3400040  52.0900011
  74.0800047  39.9400020  53.5800028  73.1900024  39.8100019  51.5800047
  72.3300028  39.5200014  52.1900034  73.0400038  41.2400007  51.0700035
  72.3400021  42.0200014  51.6200018  73.6000013  41.5700006  49.8800039
  74.2700052  40.9200001  49.5100021  73.7300014  42.8400040  49.2400026
  73.7000036  43.5900021  50.0300026  75.1000023  43.1100035  48.6100006
  75.2500057  44.1900015  48.5800028  75.1200056  42.8500032  47.5500011
  76.2700033  42.4200010  49.3200016  76.2300014  42.3000002  50.5900002
  77.2800016  42.0700026  48.6600018  72.5500011  43.3100033  48.3200026
  72.6300049  44.3100023  47.6400042  71.4500046  42.6200008  48.3800030
  71.4600039  41.7900038  48.9700031  70.2000046  42.9400015  47.6300001
  70.4700041  43.5000038  46.7300034  69.4100046  41.6800022  47.1000004
  68.4200048  41.9800043  46.7600012  69.2800045  40.9600019  47.9200029
  70.1300049  40.9700012  45.9200001  69.3900013  39.9000025  45.3299999
  68.3800030  39.9300027  45.7100010  69.9400043  39.2100024  44.2700005
  69.4700050  38.4000015  43.7400007  71.1100054  39.6400023  43.7100029
  71.6300011  39.0300012  42.6300001  72.4000025  39.5300007  42.3100042
  71.8800020  40.7000017  44.2300034  72.8300047  40.9700012  43.8000011
  71.3700056  41.3800001  45.3200006  71.8600035  42.3100042  45.5800009
  69.2900038  43.8400030  48.4400034  69.2100048  43.6900043  49.6600008
  68.4100056  44.6800041  47.8600025  68.5000038  44.9100018  46.8800020
  67.2800016  45.3600025  48.6200047  67.6400042  45.7500029  49.5600033
  66.6700029  46.3900042  47.6700020  66.9400024  46.2800026  46.6200018
  66.9700050  47.3900032  48.0200005  65.2700043  46.3600016  47.7200031
  65.0500011  46.7300034  48.5800028  66.2400055  44.3500042  49.0600014
  66.1300039  43.2400036  48.4400034  65.4700041  44.6100044  50.1100016
  65.5600023  45.5000019  50.5900002  64.3300009  43.7300014  50.4500008
  64.7500038  42.7300024  50.4700041  63.8300037  44.0000010  51.8200016
  63.4100008  45.0000000  51.9000006  62.6200008  43.2100010  52.0600033
  61.7600012  43.6300039  51.5300035  62.8100014  42.2200012  51.6800022
  62.3600006  43.2300043  53.1200027  64.9100018  43.7700033  52.8600025
  65.6600046  44.5000029  52.5800037  64.5000029  43.9900017  53.8400030
  65.2700043  42.7400017  52.8500032  63.2200050  43.7100029  49.4000006
  62.6200008  42.6400042  49.1300011  62.8700018  44.9000025  49.0100002
  63.4200048  45.7100010  49.2400026  61.8000031  45.0400019  47.9900026
  60.9300041  44.5700026  48.4200001  61.5000010  46.5799999  47.8500032
  62.4000025  47.0700026  47.4700022  60.4100037  46.8400002  46.7700005
  60.4500008  46.1900043  45.9000015  59.4400024  46.6700029  47.2400045
  60.4400015  47.8800011  46.4600039  61.0700035  47.1400023  49.1800022
  61.5700006  46.9400024  50.1100016  61.2600040  48.2100010  49.1300011
  60.0300026  46.8500042  49.3000031  62.1100044  44.4200039  46.5900040
  61.2100029  43.9700031  45.8900023  63.4000015  44.1600037  46.3900042
  64.0000010  44.4400024  47.1400023  64.0400028  43.4400034  45.3200006
  63.4800053  43.4700012  44.3900013  65.5100012  44.0700006  45.1300001
  66.0900021  43.7400007  46.0000038  65.4400015  45.1500034  45.0400019
  66.2000036  43.5100031  43.9499998  66.3800049  42.4300003  44.0500021
  65.5200052  43.8200045  42.6200008  64.9900007  44.7800016  42.6800013
  66.2200022  43.8400030  41.7799997  64.7400045  43.0900002  42.4200010
  67.5800037  44.1900015  43.9400005  67.4600029  45.2700043  43.8700008
  68.1100035  44.0200043  44.8699999  68.1800032  43.8900042  43.0800009
  64.1400051  41.9500017  45.5300045  63.9200020  41.1800003  44.6200037
  64.3600035  41.4499998  46.7600012  64.6300030  42.1300030  47.4600029
  64.2800045  40.0900030  47.1800041  64.9100018  39.5500016  46.4700031
  64.8200035  40.0400019  48.5800028  64.3100023  39.2500019  49.1200018
  64.6700048  41.0000038  49.0900040  66.3400030  39.7100019  48.4800005
  66.9700050  40.2400017  47.7800035  66.8400049  39.7600007  49.8300028
  66.3600016  39.1500020  50.5900002  67.9200029  39.6300030  49.8400021
  66.8100023  40.7700014  50.2200031  66.5800047  38.2000017  48.1300020
  65.9500027  37.5100017  48.6900043  66.3000011  38.0300021  47.0900011
  67.6300049  37.9600024  48.2300043  62.7800035  39.5400023  47.0800018
  62.5700045  38.4400010  46.5700006  61.8200016  40.3999996  47.4500036
  62.0900011  41.3000011  47.8200006  60.4500008  40.1600027  47.2300005
  60.1300049  39.2100024  47.6400042  59.6100044  41.1899996  47.9900026
  58.6800051  41.2800026  47.4400043  60.1600027  42.1400023  48.0000019
  59.1800022  40.7700014  49.4400024  58.6000013  39.8500013  49.3800020
  60.3700018  40.3999996  50.3000021  59.9700022  39.8300028  51.1400032
  61.0800028  39.8000026  49.7200012  60.9500027  41.2200022  50.7100010
  58.2900047  41.7799997  50.2200031  57.3900032  41.8600035  49.6100044
  58.1100035  41.4400005  51.2400007  58.7300014  42.7800035  50.3100014
  60.0800037  40.1900005  45.7200003  59.1300011  39.5100021  45.2800035
  60.8100033  40.9899998  44.9500036  61.4500046  41.6400003  45.3800011
  60.6300020  41.0300016  43.5200024  59.6000051  41.0200024  43.1599998
  61.2900019  42.3100042  43.0000019  62.3300028  42.0800018  42.8200006
  61.2200022  43.1700039  43.6600018  60.6900024  42.9600000  41.7900038
  59.6500015  43.2600021  41.9600010  60.7700014  42.2300005  40.9899998
  61.4700031  44.2600012  41.4499998  61.1600018  44.4200039  40.4200029
  62.5600052  44.1700029  41.4400005  61.1000013  45.4500008  42.2600031
  60.1500034  45.5000019  42.6100016  61.8200016  46.5000010  42.5699997
  62.9900026  46.7200041  42.1000004  63.4400034  46.1100006  41.4400005
  63.4200048  47.6300001  42.1700001  61.3200045  47.3600006  43.4200001
  60.4400015  47.1100044  43.8500023  61.8100023  48.2100010  43.6700010
  61.1700010  39.8300028  42.7700043  60.5300045  39.2100024  41.9500017
  62.3700047  39.3900013  43.1800032  62.9000044  40.0400019  43.7400007
  62.8800011  38.0500007  42.8299999  62.8900051  37.9400015  41.7400026
  64.2500019  37.9600024  43.4100008  64.6800041  36.9600010  43.2900000
  64.2200041  38.1200027  44.5000029  65.2800035  38.9200020  42.8100014
  64.7900009  39.8800015  42.7400017  66.5700054  38.8000011  43.6700010
  67.0200014  37.8100014  43.8000011  67.3600054  39.4500017  43.2700014
  66.2900019  39.1500020  44.6500015  65.7100010  38.6000013  41.3700008
  65.7000017  37.5100017  41.2600040  65.0300026  39.0900016  40.6700039
  66.7200041  38.9600015  41.2200022  61.9800043  36.8600011  43.2700014
  61.8400049  36.0000014  42.3600006  61.3800049  36.8300009  44.5300007
  61.6300011  37.5500011  45.1900005  60.3600025  35.7900023  44.8400021
  60.9400034  34.8900008  44.6300030  59.9800014  35.6900024  46.4200020
  59.4100046  36.6000009  46.5600014  59.3800020  34.7800016  46.4900017
  60.9500027  35.6300020  46.9300032  59.2300034  35.9100008  43.8500023
  58.7700033  34.9400020  43.2700014  58.7200022  37.1300006  43.6500025
  59.0600014  37.8800011  44.2400026  57.5900030  37.4100018  42.7900028
  56.7300034  36.7900014  43.0700016  57.0800018  38.8700008  42.9200029
  57.9300022  39.4900012  42.6000023  56.8900013  39.1500020  43.9600039
  55.8500004  39.2200017  42.1000004  55.9300041  38.9100027  41.0600042
  55.6900024  40.2900028  42.1200037  54.4800043  38.6300015  42.6900005
  54.5000029  37.5900006  42.3699999  53.6600018  39.2000008  42.2600031
  54.4900036  38.7700009  44.2400026  54.6900034  39.8200011  44.4600010
  55.3000021  38.1600022  44.6500015  53.1800032  38.3200026  44.7300005
  53.1600046  38.2500029  45.7300043  52.4000025  38.8600016  44.4000006
  53.1300020  37.3700023  44.4099998  57.7900028  37.0800018  41.2800026
  56.9100046  36.5600014  40.6500006  58.9700031  37.2300029  40.6500006
  59.6700048  37.7400017  41.1700010  59.3800020  36.6100025  39.3900013
  58.7100029  37.0100021  38.6200023  60.7000017  37.2100019  38.9400029
  61.4800024  36.9600010  39.6600008  61.1100006  36.9800019  37.5300026
  60.4700041  37.5500011  36.8600011  62.0300007  37.5400019  37.3600006
  61.1700010  35.9300017  37.2300029  60.5500031  38.6300015  39.0200019
  60.4200029  38.7700009  39.9600029  59.4800043  35.0600028  39.3300009
  59.2400026  34.5000005  38.2700014  59.8700047  34.4300008  40.4600000
  60.1100016  35.0800014  41.2000036  59.8600006  32.9500008  40.6700039
  60.2800035  32.5100017  39.7600007  60.6600046  32.5700021  41.9200039
  60.2000046  33.0100012  42.8000021  61.6200018  33.0700016  41.7700005
  60.9900045  31.0800004  42.0100021  62.0400047  30.4900026  41.2400007
  62.4300051  31.0300016  40.3800011  62.4700022  29.2100024  41.4200020
  63.2100010  28.7900019  40.7500029  61.9200039  28.4900022  42.5000000
  62.2900009  27.1800017  42.6900005  62.9000044  26.8100023  42.0400000
  60.9700012  29.0800023  43.3700037  60.5400038  28.5700011  44.2100000
  60.4600048  30.3500009  43.0299997  59.7000027  30.7200003  43.7000036
  58.4100008  32.4400020  40.7600021  58.0100012  31.5000010  40.0400019
  57.5900030  33.1300020  41.5700006  57.9400015  33.9300013  42.0800018
  56.1300039  32.9100013  41.7799997  55.8900023  31.8800020  42.0500040
  55.7000017  33.7600017  42.9800034  55.7600021  34.8000026  42.6800013
  56.3900042  33.7500024  43.8300037  54.2400026  33.5900021  43.4500027
  54.1800022  32.6400018  43.9800024  53.5100031  33.6500025  42.6400042
  53.7800026  34.6200013  44.5400000  52.9400015  35.5600023  44.3600035
  54.2300034  34.5400023  45.6800032  55.2300024  33.1900024  40.5400038
  54.2300034  32.5000024  40.3100014  55.6200027  34.1300011  39.6200013
  56.3800049  34.7400022  39.8900008  54.9700022  34.3100023  38.2800007
  53.9400005  33.9900017  38.3400011  54.9700022  35.7300019  37.7700019
  54.7100019  35.8300018  36.7100024  54.2200041  36.7000008  38.6300015
  53.1900024  36.3300014  38.6200023  54.6200037  36.7700028  39.6500015
  54.2600012  37.7300024  38.2700014  56.2600040  36.1700010  37.8000021
  56.5600014  36.1700010  38.7100029  55.5300045  33.4700012  37.1500015
  54.8800039  33.2600021  36.1600018  56.7500019  32.8800011  37.2900009
  57.3000050  33.0700016  38.1200027  57.3600006  32.1400023  36.2000012
  56.8600035  32.3700023  35.2600026  58.8400030  32.4100018  36.0000014
  59.4200039  32.2700024  36.9100022  59.5300007  31.6600013  34.7900009
  60.3500032  32.3100019  34.4600010  59.9500036  30.7400012  35.2100015
  58.8100004  31.3700008  34.0400004  59.0100050  33.7800026  35.7200027
  59.2100048  34.1100025  36.6000009  57.2500038  30.6000018  36.3200021
  57.0000029  29.8400021  35.3500009  57.2000027  30.1000023  37.6000023
  57.3700047  30.7200003  38.3700013  56.9300032  28.6400008  37.8500009
  57.6600027  28.0000019  37.3600006  57.0000029  28.2800007  39.3500018
  56.3200045  27.4500012  39.5100021  56.6000032  29.0500021  40.0200033
  58.4200048  27.8600001  39.7800016  59.1200018  28.6200023  39.4400024
  58.3600044  27.9400015  41.3000011  57.6200008  27.2900009  41.7900038
  59.3500042  27.5700021  41.6200018  58.2600021  28.9500022  41.6600037
  58.7900019  26.5200019  39.4400024  59.7200012  26.1400008  39.8800015
  58.0000019  25.8500004  39.7900009  58.9000034  26.5000010  38.3500028
  55.5600023  28.2800007  37.2200012  55.4400015  27.1900010  36.7200017
  54.5000029  29.1700006  37.1800017  54.6500015  30.0500011  37.6500010
  53.1700039  28.8500023  36.5900016  52.8300047  27.9700017  37.1400023
  52.1700048  30.0600004  36.8700027  52.5700045  30.9800005  36.4400029
  52.1700048  30.1600003  37.9500008  50.8200026  29.8300004  36.3000011
  50.5900002  28.7600017  36.4000010  50.8700037  30.1200008  35.2500010
  49.7200012  30.5900025  37.0800018  49.4300032  31.7200017  36.7900014
  49.2000008  30.0200009  38.1100011  53.2600021  28.5600019  35.0600028
  52.4600029  27.7700019  34.5200014  54.1800022  29.2900014  34.3400025
  54.6600008  30.1000023  34.7100019  54.5500040  28.9200020  32.9700017
  53.5800028  28.6900020  32.5000024  55.2500010  30.0900006  32.2200012
  56.2700033  30.2900004  32.5400019  54.7400045  30.9300017  32.7000022
  55.1100016  30.0700021  30.7100010  54.9400043  31.1100006  30.4100013
  54.2500019  29.4900012  30.3700018  56.2600040  29.4600010  29.9200010
  56.0200024  29.7200012  28.8900018  56.3300037  28.3900023  30.1100016
  57.6800013  30.0000024  30.3200006  58.4200048  29.5500016  29.6700025
  57.8200006  29.8000026  31.3700008  57.9100037  31.4200020  30.1000023
  58.9100027  31.5800023  30.0900006  57.5800037  31.6600013  29.1800022
  57.4300051  31.9400024  30.8200026  55.3400040  27.6500010  32.8000021
  55.3200006  26.9500017  31.7700005  56.1000013  27.2600007  33.8300014
  56.0700035  27.8400016  34.6700025  56.8800020  26.0600019  33.8200021
  57.1100044  25.9100008  32.7700019  58.1300020  26.1600018  34.6300006
  58.7400007  25.2600002  34.5000005  57.7900028  26.2500024  35.6500006
  59.0800047  27.5800014  34.2500019  56.1200047  24.8300004  34.2000008
  56.3700008  23.8100004  33.6200023  55.2000046  24.8600006  35.1600027
  55.1700020  25.7200003  35.7000017  54.5600033  23.6600018  35.7700014
  55.3400040  22.8900003  35.7800007  54.2900038  23.9000010  37.2500014
  53.7200022  23.1100011  37.7400017  53.6600018  24.7800016  37.2700024
  55.7000017  24.1700006  38.4300017  53.4300041  23.1100011  34.9800014
  52.7600002  22.2100019  35.3700018  53.2800007  23.5200000  33.7600017
  53.8600016  24.3100023  33.5000014  52.4200010  22.9000020  32.7800012
  52.0700026  21.9800019  33.2400012  51.2400007  23.8200021  32.6200008
  51.6200018  24.7600007  32.2500014  50.5300045  23.2600021  32.0000005
  50.7500029  24.0800023  33.5600019  53.1700039  22.6100016  31.4700007
  52.6200008  22.2200012  30.4700017  54.5000029  22.7900004  31.4800024
  54.9700022  22.9800010  32.3500013  55.3400040  22.3699999  30.3400016
  54.8200035  22.6900005  29.4500017  56.6600037  23.1000018  30.3900003
  57.2400045  22.8299999  31.2900019  57.1400023  22.7600002  29.4900012
  56.5000010  24.1800022  30.4600024  55.4700041  20.8600020  30.3500009
  55.1700020  20.2600002  31.4000010  55.9400034  20.2900004  29.2400002
  56.1600018  20.9500003  28.5100007  56.3000011  18.8800013  29.1600013
  55.6500006  18.2300007  29.7300005  56.0300016  18.5400009  27.6800013
  55.2000046  19.0700006  27.2000003  56.9700050  18.7300014  27.1600008
  55.7900047  17.5000012  27.4800014  57.7000046  18.5300004  29.7200012
  58.0300045  17.4000013  30.0600004  58.5200024  19.5300007  29.8700023
  58.2700014  20.3299999  29.3100023  59.8500013  19.4800007  30.5100012
  59.9200010  18.5800004  31.1200023  60.9000015  19.4400012  29.4100022
  61.0700035  20.3800011  28.8900018  60.5600023  18.6500013  28.7300014
  62.2500038  19.1500008  30.0300026  63.1500053  18.7400007  29.2100024
  62.4500036  19.1600013  31.2700009  59.9100018  20.6700015  31.4300013
  60.6500006  21.6500020  31.1000013  59.1300011  20.7400012  32.5000024
  58.1900024  19.7200012  32.9900026  58.8100004  18.8600004  33.2500005
  57.4600029  19.4600010  32.2300005  57.5100040  20.2600002  34.2500019
  57.4200010  19.5100009  35.0300026  56.5600014  20.6500006  33.9200020
  58.4400034  21.3300014  34.7300005  59.1400051  20.9400010  35.4700017
  57.9100037  22.1800017  35.1800013  59.2000008  21.8000007  33.4500027
  58.7300014  22.6700020  32.9900026  60.6000042  22.2500014  33.8000011
  60.8600044  23.4100008  34.0500021  61.5300035  21.3000011  33.9000010
  61.3600016  20.3700018  33.5400009  62.9100037  21.6100001  34.1900015
  62.9400015  22.2600007  35.0700021  63.6800051  20.3000021  34.4300008
  63.8700008  19.7000015  33.5300016  63.0900049  19.8000014  35.2100015
  65.0500011  20.5200005  35.0100017  66.1300039  20.0100017  34.3500018
  67.1500015  20.1300001  35.2400017  68.1300020  19.7400010  35.0200009
  66.7200041  20.6599998  36.4100027  67.2400045  20.7700014  37.2600007
  65.3500032  20.8899999  36.2500024  64.6300030  21.1600018  37.0100021
  63.6700010  22.4900007  33.1000018  64.3600035  23.4800005  33.4700012
  63.3800030  22.3200011  31.8100023  62.7800035  21.5700006  31.4800024
  63.9000034  23.2100010  30.7200003  64.9000025  23.5700011  30.9500003
  63.9900017  22.3500013  29.3500018  62.9700041  22.0900011  29.0700006
  64.6200037  21.4700007  29.5100021  64.6800041  23.0100012  28.1300020
  65.4800034  23.7000012  28.4300017  64.0100050  23.7700009  27.7300024
  65.1300049  22.0600009  27.0200014  64.2300034  21.4900017  26.3000011
  66.3400030  21.7800021  26.9100022  63.1000042  24.4600010  30.6500006
  63.5500050  25.4500008  30.0000024  62.0300007  24.6300006  31.4400005
  61.9100046  23.8700008  32.0900011  61.4300013  26.0100007  31.6400003
  61.7200041  26.6800022  30.8300018  59.9000025  25.9900022  31.6300011
  59.5800018  25.2200007  32.3300004  59.4800043  25.7000017  30.6600022
  59.1800022  27.5600004  32.2100019  62.1100044  26.5900016  32.8500009
  62.7800035  27.6000023  32.7900004  61.9400024  26.0800004  34.0500021
  61.5200043  25.1600003  34.1600013  62.3700047  26.6800022  35.3500009
  62.2700024  27.7600002  35.2800012  61.4500046  26.2500024  36.4800024
  60.4000044  26.2400007  36.1700010  61.5600014  27.0600009  37.2000027
  61.6600037  24.8400021  37.0400023  62.8800011  24.4200015  37.5800014
  63.7000036  25.1000023  37.6500010  62.9600048  23.1300020  38.1300020
  63.9100027  22.8900003  38.5900021  61.9000006  22.2400022  37.9700017
  62.0200014  20.9100008  38.3300018  61.1400032  20.5100012  38.2900023
  60.6300020  22.6500010  37.4400020  59.7300005  22.0500016  37.4300027
  60.5500031  23.9800000  36.9500017  59.5800018  24.3200016  36.5900016
  63.8900042  26.6500020  35.6200027  64.3700027  27.5300002  36.4900017
  64.7400045  25.8400011  34.9700022  64.3300009  25.0900006  34.4400024
  66.1400032  26.1700010  35.0400019  66.5400028  26.2800002  36.0500026
  66.9600010  25.0400019  34.3900013  66.9400024  24.1200018  34.9600005
  66.5900040  24.7700024  33.4000015  68.0300045  25.2500010  34.3200016
  66.4800024  27.5200009  34.2800021  67.6400042  27.8600001  34.3400025
  65.5800009  28.2600021  33.6000013  64.6300030  27.9200006  33.5600019
  65.9500027  29.5200014  32.9100013  67.0200014  29.6000004  32.7300024
  65.4100037  29.4200015  31.5300012  65.7600021  30.2900004  30.9700012
  64.3300009  29.4800019  31.4700007  65.9500027  28.1600022  30.7600021
  65.5500031  27.2100019  31.1200023  67.0000029  28.0900002  31.0500026
  65.8600044  28.1700015  29.1900015  66.5200043  28.9500022  28.8200021
  64.8400021  28.4400010  28.8900018  66.2300014  26.8200016  28.7000012
  65.7400036  26.0300016  29.2700005  67.3100042  26.7500019  28.8300014
  65.9100008  26.5900016  27.2900009  66.2600040  25.7200003  26.9100022
  64.9000025  26.5200019  27.3000002  66.0500050  27.3800015  26.6700006
  65.5800009  30.8500004  33.6900020  65.6200027  31.9400024  33.0400014
  65.1900053  30.7800007  35.0000024  65.1700020  29.8900008  35.4600024
  64.8900032  32.0400023  35.7900023  64.2500019  32.6500010  35.1500010
  63.9600039  31.7900014  37.0000029  63.8700008  32.6800013  37.6200008
  62.5900030  31.3400006  36.4900017  62.1800041  32.2200012  35.9600019
  62.5700045  30.4700017  35.8400011  61.9200039  31.2500024  37.3400021
  64.4600010  30.6800008  38.0200028  64.0800047  29.7000003  37.7400017
  65.5400038  30.6200004  38.1100011  64.0500021  30.8200026  39.0200019
  66.0900021  32.8900027  36.2400007  65.9600019  34.0700006  36.4900017
  67.3200035  32.3300004  36.3000011  67.3900032  31.3700008  35.9900022
  68.4600019  33.1000018  36.7900014  68.1500053  33.6300015  37.6800013
  69.6300030  32.1800017  37.2400022  69.9000025  31.5900016  36.3700008
  69.3900013  31.5200019  38.0700016  70.8800030  32.9500008  37.6400018
  70.9500027  33.7900019  38.7700009  70.1200056  34.0000010  39.4300008
  72.1900034  34.3900013  39.0700030  72.2900057  34.8500013  40.0300026
  73.3500051  34.2500019  38.3400011  74.3200016  34.4600010  38.7500024
  73.2400036  33.3700013  37.2200012  74.1300058  33.1300020  36.6600013
  72.0700026  32.6800013  36.9300008  72.2000027  31.8800020  36.2100029
  68.9500046  34.1500020  35.7900023  69.5100021  35.2000022  36.1400008
  68.6000013  33.9700007  34.5000005  68.3400011  33.0500007  34.1900015
  68.7200022  35.0300026  33.5100007  69.6000051  35.5800009  33.8100004
  69.0800047  34.3500018  32.1200013  69.1900015  35.1600027  31.4000010
  68.3000040  33.6300015  31.8300009  70.3800011  33.5700011  32.1800017
  70.4200029  32.2900009  32.2600007  71.4600039  34.1500020  32.1300006
  67.5200033  35.9800029  33.4000015  67.6200008  36.9600010  32.6700020
  66.3700008  35.7000017  34.0500021  66.4400053  34.8800015  34.6200013
  65.3200054  36.7000008  34.3600011  65.2500010  37.4200010  33.5500026
  63.9400053  36.0700011  34.4400024  63.1000042  36.7600012  34.5700026
  63.9600039  35.3600025  35.2700019  63.6700010  35.3600025  33.0800009
  62.7100039  34.8500013  33.1900024  64.4100046  34.5500016  33.0700016
  63.6500025  36.0700011  31.7800021  63.2600021  37.2500014  31.6800022
  63.9900017  35.3700018  30.7900023  65.5900049  37.4900007  35.6700015
  65.0900030  38.6200023  35.8000016  66.3800049  36.9400024  36.5600014
  66.6800022  35.9700012  36.4500022  66.7800045  37.5600028  37.8800011
  65.9600019  38.1000018  38.3200026  67.2200012  36.4600015  38.8800025
  67.6400042  36.9000006  39.7800016  67.9400015  35.7900023  38.4000015
  66.1800051  35.4500008  39.3600011  64.8400021  35.6500006  38.9800024
  64.5700026  36.3500023  38.2100010  63.8600016  34.7500014  39.3900013
  62.8300047  34.9000025  39.0900016  64.2200041  33.6700010  40.2400017
  63.4200048  33.0200005  40.5700016  65.5000019  33.4600019  40.6700039
  65.8500051  32.6000023  41.2300014  66.4900017  34.3500018  40.2400017
  67.5100040  34.2500019  40.5800009  67.9400015  38.4800029  37.7000022
  68.0500031  39.3900013  38.4800029  68.9200020  38.1900024  36.7800021
  68.7900019  37.3100019  36.3000011  70.0500011  39.0500021  36.4400029
  70.5700016  39.1400027  37.4000025  71.0400057  38.3400011  35.5300021
  71.5300035  39.1500020  34.9800014  70.5300045  37.7200007  34.8000026
  72.1300030  37.5900006  36.3800025  71.7100048  36.8800020  37.1000028
  72.7100039  38.3400011  36.9100022  73.0900049  36.7300010  35.6400013
  73.9400053  36.4300013  36.2600017  73.5500050  37.3500013  34.8700023
  72.4100018  35.5200028  34.9800014  71.5300035  35.8900023  34.4300008
  72.0600033  35.0200009  35.8700013  73.4100056  34.7500014  34.2100024
  73.0600023  33.9500022  33.7000012  73.7200022  35.3100014  33.4300017
  74.2300034  34.4000006  34.7000027  69.6000051  40.4400015  36.0100007
  69.9700022  41.3900042  36.7700028  68.7800026  40.6200027  34.9300027
  68.3900023  39.5800018  33.9500022  67.8900051  38.8100028  34.5200014
  69.1800022  39.1900015  33.3100009  67.2600031  40.2800035  33.1200027
  66.3600016  40.2700043  33.7100005  67.0700026  39.8000026  32.1500015
  67.8300047  41.6800022  33.0700016  67.0300055  42.4000025  32.8500009
  68.6000013  41.6300011  32.3000026  68.4300041  41.9600010  34.4600010
  69.4000053  42.4300003  34.3000007  67.5400019  42.6700020  35.5000019
  67.6100016  43.9100027  35.5900025  66.9000053  41.8700027  36.3400006
  67.0700026  40.8900023  36.1800027  65.9900045  42.3800039  37.4200010
  65.4600048  43.2200003  36.9400024  65.0300026  41.2200022  37.6900029
  65.6500053  40.5100012  38.2500029  64.7700024  40.7700014  36.7400026
  63.9200020  41.6900015  38.6200023  64.3000031  42.0900011  39.5500016
  62.9700041  42.6600027  37.8200006  63.4800053  43.5600042  37.4700022
  62.6600027  42.0800018  36.9500017  62.0700026  42.8500032  38.4000015
  62.9800034  40.4700041  38.9400029  62.5200033  40.0900030  38.0400014
  63.5400009  39.6300030  39.3500018  62.2000027  40.8500004  39.6000028
  66.7100048  43.0000019  38.6700010  66.1000013  43.7500000  39.4000030
  68.0000019  42.7200031  38.8100028  68.5100031  42.3600006  38.0200028
  68.8200045  43.2700014  39.8900008  68.1500053  43.7100029  40.6300020
  69.6000051  42.1800041  40.7100010  70.1700020  42.6700020  41.4900017
  68.6300039  41.2700033  41.4300013  69.2000055  40.6300020  42.1000004
  67.8400040  41.8500042  41.9000006  68.2200050  40.7100010  40.5900002
  70.6300020  41.4100027  39.8600030  70.0600052  40.8800030  39.1000009
  71.2800026  42.0600033  39.2700028  71.2300014  40.7200003  40.4600000
  69.8900032  44.2900038  39.4200015  70.6400013  44.7900009  40.1999998
  70.0200033  44.3500042  38.0800009  69.4400024  43.7200022  37.5500011
  70.8500051  45.3500032  37.3700023  71.7600012  45.5400038  37.9500008
  71.2000036  44.7600031  36.0300016  70.3000021  44.5300007  35.4700017
  71.7200041  43.8500023  36.3300014  72.0700026  45.6500006  35.0500011
  72.9000044  46.0900021  35.5900025  71.5100050  46.4400005  34.5700026
  72.6300049  44.7500038  33.9200020  73.5400057  43.9200020  34.1400027
  72.1400023  44.7900009  32.7700019  70.1700020  46.6700029  37.1600008
  70.7900047  47.6900005  37.5200009  68.9000034  46.7300034  36.7600012
  68.4800053  45.8300018  36.5700006  68.2200050  48.0000019  36.5400028
  68.8400030  48.5300016  35.8100009  66.9000053  47.6900005  35.8500028
  66.2300014  47.1600008  36.5200019  67.0900011  47.1200037  34.9500012
  66.1500025  48.8900042  35.2700019  65.3800011  48.6400032  34.5400023
  66.8700027  49.5900011  34.8600006  65.3100014  49.6900034  36.2600017
  64.9400043  49.1400003  37.3200011  64.9000025  50.8600044  35.9400010
  68.0000019  48.8500023  37.7900028  68.2400036  50.0700045  37.6500010
  67.6900053  48.3000040  38.9600015  67.3700047  46.8800020  39.2000008
  68.1400013  46.1300039  39.0100026  66.4900017  46.4800024  38.6700010
  67.1700048  46.7200041  40.7400036  68.1300020  46.3300037  41.1000013
  66.2800026  46.1000013  40.9000015  67.0100021  48.0900002  41.3400030
  67.5200033  48.1700039  42.3000002  65.9500027  48.2500029  41.5000010
  67.6600027  49.0400028  40.2900028  66.9600010  49.8700047  40.3100014
  69.0300035  49.4700003  40.6400013  69.1200018  50.2500010  41.6100025
  70.1200056  48.9000034  40.0200033  69.9400043  48.1900024  39.3100023
  71.4800024  49.2300034  40.4500008  71.5700054  49.4500017  41.5200043
  72.4700022  48.0300045  40.1600027  72.5600052  47.8600025  39.0800023
  71.9800043  47.1800041  40.6500006  73.8500023  48.3200026  40.7100010
  74.0700054  49.3500042  40.4200029  74.6600056  47.6900005  40.3299999
  73.9900017  48.2400036  42.2300005  74.0700054  49.2500019  42.8600025
  73.9900017  47.0700026  42.8100014  73.7700033  46.2400007  42.2800016
  74.2300034  47.0300007  43.7900019  71.8400049  50.4600000  39.6700025
  72.2700024  51.4300013  40.2100039  71.6500044  50.4700041  38.3400011
  71.1100054  49.7500038  37.8900027  71.8900013  51.6500044  37.4500012
  72.8500032  52.1300030  37.7000022  72.0200014  51.0000038  36.0500026
  71.9800043  51.8600035  35.3700018  71.1000013  50.4500008  35.8300018
  73.2500029  50.1000023  35.9000015  74.3500042  50.5200005  35.6300020
  73.1400013  48.8600016  36.2800026  72.2100019  48.5000038  36.4700007
  73.9000034  48.1800032  36.2800026  70.9000015  52.8300047  37.6000023
  71.1400032  53.9800024  37.2700024  69.8400021  52.5100040  38.3200026
  69.6700048  51.5200043  38.4500027  68.9500046  53.5200024  39.0000010
  68.4400034  54.1300011  38.2500029  67.9100037  52.7600002  39.8200011
  68.4000015  52.1100044  40.5400038  67.2900009  52.1800041  39.1300011
  66.9700050  53.6800003  40.6000042  67.5200033  54.4400024  41.1500025
  65.9400034  54.3700027  39.6800017  65.5800009  55.2500010  40.2200031
  66.4600039  54.9100018  38.9000010  65.1300049  53.7800026  39.2400026
  66.1800051  52.8900003  41.6900015  65.7800055  51.9000006  41.4700031
  66.8100023  52.8800011  42.5800037  65.3600025  53.5000038  42.0900011
  69.7200012  54.4700003  39.8300028  69.8000050  55.6500006  39.6200013
  70.3100014  53.9300013  40.9300041  70.0700045  52.9800034  41.1600018
  70.9400034  54.7900009  41.9200039  70.2300024  55.6200027  41.9600010
  70.9600019  54.0400028  43.2800007  69.9400043  53.7500048  43.5300016
  71.8100023  52.7400017  43.2000017  72.8500032  52.9900026  42.9700041
  71.8300056  52.2800016  44.1900015  71.2800026  52.0700026  42.5100040
  71.4100027  54.8900032  44.4900036  72.4600029  55.1300049  44.3600035
  71.5200043  54.3700027  45.4400015  70.3800011  56.0000038  44.7200012
  69.3700027  55.6000042  44.6200037  70.4300022  56.3600016  45.7500029
  70.6500053  56.7900038  44.0200043  72.2600031  55.3800011  41.4200020
  72.5200033  56.6100025  41.5900040  73.0900049  54.6400023  40.7300043
  72.8400040  53.6800003  40.5800009  74.1700029  55.2200031  39.8900008
  74.9400043  55.6400013  40.5500031  74.7100019  54.2300034  38.8600016
  75.4400015  54.6700048  38.1900024  73.8400030  53.9500046  38.2600021
  75.3300047  52.9900026  39.5400023  74.6700048  52.4800014  40.2400017
  76.2300014  53.3100033  40.0600004  75.6400013  51.9300032  38.4500027
  74.7700024  51.4900017  37.9600024  76.0900021  51.1200047  39.0300012
  76.7200041  52.2400045  37.3300028  77.6100016  52.5900030  37.8300023
  76.2600040  52.9800034  36.6500020  76.9300032  51.0300016  36.4800024
  77.2600031  50.2100039  36.9800019  76.0700035  50.7700014  36.0100007
  77.6100016  51.2900019  35.7800007  73.7400055  56.4800024  39.1200018
  74.4300032  57.5000048  39.2500019  72.5700045  56.5500021  38.4700012
  72.0300055  55.7000017  38.3700013  72.0900011  57.7500010  37.7700019
  72.9600048  58.2800007  37.3900008  71.0700035  57.4100018  36.5900016
  70.1200056  57.1200037  37.0300007  71.4800024  56.6200018  35.9600019
  70.9600019  58.6500025  35.5700016  70.3900051  59.4000006  36.1200023
  70.3400040  58.3300018  34.7400022  72.3300028  59.0900040  34.9700022
  73.1800032  58.2900047  34.8700023  72.5500011  60.2600050  34.4500017
  71.7600012  60.9000015  34.4700027  73.5100031  60.4500008  34.2000008
  71.4500046  58.8000011  38.7700009  71.6500044  60.0100040  38.5900021
  70.7400036  58.4300041  39.8400021  70.7600021  57.4400043  40.0400019
  70.3200054  59.4800043  40.7500029  69.6300030  60.1600027  40.2300024
  69.5200014  58.8000011  41.8600035  69.4800043  59.5300007  42.6700020
  70.0600052  57.9400015  42.2600031  68.0800009  58.5100031  41.4600039
  67.2300053  59.2600012  41.9099998  67.7300024  57.5600004  40.6500006
  68.4900045  57.0800018  40.1800013  66.7700052  57.4200010  40.3600025
  71.5300035  60.2800035  41.4200020  71.5800047  61.5100050  41.4600039
  72.5900030  59.5800018  41.7900038  72.5000048  58.5800028  41.6600037
  73.8000011  60.0300026  42.3800039  73.5800028  60.7600021  43.1700039
  74.4700050  58.8800049  43.0000019  75.3700018  59.3300009  43.4100008
  74.7300053  58.1600046  42.2200012  73.6900043  58.0500031  44.3200016
  74.7000027  60.7300043  41.3500023  75.8100033  61.2500048  41.6300011
  74.3900013  60.5900049  40.0699997  73.7800026  59.8100042  39.8800015
  74.9500036  61.4000034  39.0200019  76.0100031  61.6100025  39.1700029
  74.8500013  60.6100035  37.6800013  73.9200020  60.8300018  37.1600008
  74.7400045  59.5300007  37.8000021  76.1000013  61.0000038  36.8300009
  76.9900036  60.4000044  37.0800018  76.3100052  62.0300007  37.1100020
  75.9100056  60.9100008  35.3400016  75.1900053  61.7700052  34.7100019
  76.5000057  60.0000048  34.6900010  74.1900015  62.7300024  39.0200019
  74.9500036  63.6900043  39.1900015  72.8400040  62.8900051  38.7700009
  72.2000027  62.1000051  38.7400007  72.1900034  64.1600037  38.6800027
  72.7300024  64.7900009  37.9700017  70.7300043  64.0300035  38.2900023
  70.2200031  63.4500027  39.0500021  70.6300020  63.3200026  37.4700022
  69.9600029  65.2500010  37.9300022  70.1000023  65.8900023  38.8000011
  70.5500031  65.9100008  36.7000008  69.8800039  66.7000055  36.3400006
  71.5200043  66.2900019  37.0100021  70.7500029  65.1400042  35.9600019
  68.4500027  64.9600029  37.6200008  67.9200029  65.9000015  37.5400019
  68.3500051  64.3200016  36.7500019  67.9700041  64.5500040  38.5100007
  72.2900057  64.9700022  39.9700022  72.3000050  66.2000036  39.9400020
  72.3700047  64.4000053  41.2200022  72.2600031  63.4000015  41.3199997
  72.5300026  65.0700045  42.5100040  71.8600035  65.9300041  42.6400042
  72.4300051  63.9500046  43.5600042  73.2400036  63.2300043  43.5200024
  71.4600039  63.4600019  43.4200001  72.3900032  64.4200039  45.0400019
  71.2400055  65.1000023  45.5600023  70.4000044  65.3500032  44.9100018
  71.1800051  65.4400015  46.9099998  70.2300024  65.8200026  47.2500038
  72.2700024  65.1800013  47.7600002  72.1200037  65.4900026  48.7900019
  73.4300041  64.6300030  47.2200012  74.3300056  64.5400047  47.8299999
  73.4800053  64.2400026  45.8700037  74.3300056  63.7000036  45.4900026
  73.8900042  65.7600021  42.5400019  74.0000057  66.9200039  42.9400015
  75.0200033  65.1400042  42.1700001  74.9400043  64.2300034  41.7400026
  76.3600016  65.6300020  42.1700001  76.3700056  66.1300039  43.1300020
  77.2900057  64.3800020  41.9300032  77.0600033  64.1000032  40.9100008
  77.0100021  63.5300016  42.5500011  78.8200045  64.6700048  41.9700003
  79.1000032  64.6900034  43.0200005  79.1400051  65.6400013  41.5799999
  79.6200037  63.4700012  41.4000034  79.8200035  62.4700022  42.1500015
  80.1399994  63.5400009  40.2700043  76.6300058  66.7000055  41.0100031
  77.6300049  67.4600029  41.0600042  75.7300043  66.8100023  40.0300026
  75.0500059  66.0600042  39.9800014  75.6400013  67.8200054  38.9500022
  76.6700029  68.1000042  38.7300014  75.0800037  67.2200012  37.6500010
  74.9200058  68.0400038  36.9400024  74.1700029  66.7000055  37.9400015
  76.0700035  66.0300016  37.1100020  76.3200045  65.3600025  37.9300022
  76.9600058  66.5600014  36.7700028  75.4800034  65.2200031  35.9500027
  74.3200016  65.3800011  35.5200028  76.1800051  64.2700052  35.4100013
  77.1200037  64.1100025  35.7500029  75.7100058  63.5000038  34.9500012
  74.8800039  69.0500021  39.3500018  75.0800037  70.0500011  38.6500025
  74.0200043  69.0200043  40.3999996  74.0200043  68.1100035  40.8200026
  73.1700039  70.1800013  40.7300043  73.5100031  71.0400057  40.1300001
  71.7100048  69.8300028  40.3800011  71.1000013  70.6900024  40.6200027
  71.5400028  68.9200020  40.9500027  71.3800049  69.5700026  38.8800025
  71.9000053  68.6900043  38.4900022  69.8700047  69.2300034  38.7600017
  69.6300030  68.4600019  39.4800019  69.2800045  70.0800037  39.1000009
  69.5400047  68.8900042  37.7700019  71.7500019  70.7900047  37.9800010
  71.4600039  70.5900049  36.9500017  71.2100029  71.6500044  38.3800030
  72.8400040  70.8800030  37.9800010  73.2400036  70.6500053  42.2300005
  72.9000044  71.7900038  42.5000000  73.5800028  69.7400045  43.1300020
  73.8400030  68.8000011  42.8500032  73.3600044  69.8400021  44.5700026
  73.5300016  70.8500051  44.9400043  74.0800047  69.1800022  45.0600004
  72.0100021  69.3200016  44.9500036  71.3200045  68.8000011  44.1800022
  71.6500044  69.6100044  46.1800003  72.3900032  70.0100040  46.7700005
  70.4600048  69.0900040  46.8400002  70.2700043  68.1200027  46.4100027
  70.6900024  68.9500046  48.3900023  71.2700033  68.0700016  48.6500025
  69.7700024  68.6700010  48.9000034  71.1600018  70.1300049  49.2000008
  71.0400057  70.0800037  50.2900028  70.7300043  71.0700035  48.8500023
  72.7000046  70.3500032  49.1100025  73.4400034  69.6100044  49.8400021
  73.2400036  71.0900021  48.2200003  69.1400051  69.9700022  46.4700031
  68.1300020  69.3500042  46.2200022  69.1200018  71.3300037  46.5300035
  70.0100040  71.7400026  46.7500019  67.9800034  72.1700048  46.0100031
  67.0900011  71.9600058  46.6200018  68.2000017  73.6400032  46.4300013
  69.2200041  73.8900042  46.1199999  68.2100010  73.7400055  47.5200033
  67.3600054  74.7000027  45.7600021  66.0800028  75.0500059  46.1900043
  65.6300020  74.3000031  46.8300009  65.3300047  76.0800028  45.5900002
  64.2700052  76.2400055  45.7600021  65.9600019  76.8400049  44.5700026
  65.1600027  77.7300024  43.8900042  65.6000042  77.9400015  43.0600023
  67.2900009  76.5800047  44.2100000  67.7700043  77.1300030  43.4200001
  67.9500055  75.4500055  44.7100019  68.9200020  75.1500034  44.3300009
  67.6100016  72.0400047  44.5400000  66.4300013  71.7800045  44.2700005
  68.5400009  72.0600033  43.5400009  69.4500017  72.3700047  43.8500023
  68.2000017  71.8600035  42.1099997  67.2300053  72.3300028  41.9300032
  69.1500044  72.6300049  41.2000036  68.9300013  72.2600031  40.1999998
  70.1500034  72.3900032  41.5600014  68.9200020  74.1500044  41.2400007
  69.0200043  74.5000029  42.2600031  67.9700041  74.3200016  40.7100010
  70.0000048  74.9400043  40.4600000  70.0300026  74.6900034  39.4000030
  70.9600019  74.6200037  40.8700037  69.8300028  76.4300013  40.6300020
  69.9400043  76.7600060  41.6700029  68.8200045  76.5700054  40.2700043
  70.8200026  77.1600056  39.7900009  70.8200026  76.8300056  38.8400030
  70.6500053  78.1400061  39.9400020  71.7300034  76.9500017  40.1500034
  67.7800035  70.4600048  41.6900015  66.9800043  70.3100014  40.8000040
  68.4100056  69.4500017  42.2900009  69.1500044  69.6400023  42.9400015
  68.0700016  68.0600023  42.0200014  67.9800034  67.9300022  40.9400034
  69.0300035  67.0900011  42.7900028  69.0500021  67.4400043  43.8200045
  70.0400019  67.2500038  42.4200010  68.5900021  65.6200027  42.6700020
  68.9300013  64.8200035  41.5900040  69.4100046  65.3100014  40.7400036
  68.7100029  63.4500027  41.5600014  68.9800024  62.8100014  40.7300043
  68.0600023  62.7700043  42.6400042  67.8100014  61.7200041  42.5400019
  67.7100039  63.5600042  43.7300014  67.2400045  63.1300020  44.6000004
  67.9500055  64.9700022  43.7300014  67.7400017  65.5800009  44.6000004
  66.6000032  67.8700018  42.4600029  65.7500029  67.4600029  41.6400003
  66.2000036  68.3900023  43.6400032  66.9200039  68.8800049  44.1700029
  64.8600054  68.5000038  44.0900040  64.5000029  67.4700022  44.1200018
  64.9300051  69.2200041  45.4800034  65.2300024  70.2700043  45.3600025
  65.7700014  68.8400030  46.0500002  63.6200047  69.1000032  46.3500023
  62.7400017  69.3400049  45.7700014  63.6000013  69.7900057  47.2000027
  63.4000015  67.7000046  46.8300009  63.6700010  66.6900015  46.2000036
  63.0300045  67.5200033  48.0900002  63.0000019  68.3500051  48.6700010
  62.9900026  66.5800047  48.4400034  63.9800024  69.3200016  43.0800009
  62.8600025  68.9600039  42.7600002  64.4900036  70.3700018  42.3600006
  65.4800034  70.5200052  42.4900007  63.7400007  71.1100054  41.4499998
  62.8000021  71.4500046  41.8800020  64.4400024  72.4500036  41.0100031
  63.8700008  72.8900051  40.1900005  65.4500008  72.2700024  40.6599998
  64.6300030  73.4900045  42.1600008  64.0400028  73.4600019  43.2600021
  65.4100037  74.4800043  41.9700003  65.8100033  74.6100044  41.0600042
  65.3900051  75.2000046  42.6999998  63.4300041  70.2000046  40.1700020
  62.3700047  69.9700022  39.6500015  64.5400047  69.5800018  39.6400023
  65.4200029  69.6100044  40.1500034  64.3900013  68.6500025  38.5000014
  63.8800049  69.1400051  37.6700020  65.8800030  68.2100010  38.2100010
  65.8400011  67.7200031  37.2400022  66.4800024  69.0900040  37.9800010
  66.3800049  67.6300049  38.9900017  63.5400009  67.4400043  38.7500024
  62.8200006  67.0000029  37.8100014  63.4700012  66.8700027  39.9500012
  64.1200018  67.0800018  40.7000017  62.5100040  65.8100033  40.3200006
  62.4300051  65.1600027  39.4500017  63.0500031  65.0800037  41.5600014
  62.2300053  64.5200014  41.9900036  63.4400034  65.7700014  42.3100042
  64.0300035  63.9300013  41.1700010  63.5300016  63.2400036  40.4900026
  65.2800035  64.2300034  40.4300022  65.9000015  63.3700037  40.1900005
  64.9600029  64.7500038  39.5400023  65.9300041  64.9300051  40.9600019
  64.5600033  63.1800032  42.4000025  64.9300051  64.0300035  42.9600000
  63.6800051  62.7500010  42.8800011  65.3600025  62.4600029  42.2200012
  61.1200047  66.4000034  40.3999996  60.1500034  65.8000040  40.0600004
  61.0400009  67.7100039  40.8200026  61.8500042  68.2800055  41.0100031
  59.7300005  68.3700037  41.0200024  59.0500021  67.7500010  41.5900040
  59.8700047  69.7400045  41.7500019  59.1800022  70.4200029  41.2600040
  60.8000040  70.2600050  41.5400028  59.6300030  69.6500015  43.2700014
  59.7700024  68.6300039  43.6300039  60.4200029  70.5100012  44.2400026
  60.4300022  70.1000023  45.2500010  61.4600039  70.5600023  43.9100027
  60.0200033  71.5300035  44.3300009  58.2000017  69.9500036  43.6400032
  57.9800034  71.0000038  43.4600019  57.4700022  69.3700027  43.0600023
  57.9900026  69.7200012  44.6800041  59.1400051  68.5600042  39.5800018
  57.9500008  68.2400036  39.3700027  59.9700022  69.0200043  38.5900021
  60.7900047  69.5700026  38.8100028  59.4400024  69.0300035  37.1700025
  58.5400009  69.6300030  37.0900011  60.5600023  69.5100021  36.1800027
  61.4700031  68.9700031  36.4000010  60.1400042  69.3200016  34.6800017
  60.0800037  68.2900047  34.3600011  59.1700029  69.7700024  34.4700027
  60.8000040  69.9300051  34.0700006  60.7800007  71.0300016  36.3700008
  59.9200010  71.6600037  36.1500025  60.8900023  71.2200022  37.4400020
  61.7600012  71.2500048  35.9400010  59.0000010  67.5800037  36.7700028
  57.9100037  67.3200035  36.2500024  59.8800039  66.5900040  37.0500016
  60.7500029  66.8000031  37.5200009  59.6100044  65.1800013  36.6900015
  59.4500017  65.1500034  35.6100011  60.8600044  64.3500042  37.0700026
  61.0000038  64.5100021  38.1300020  61.7000008  64.7200012  36.4900017
  60.8900023  62.7900028  36.8100023  60.6200027  62.4900007  35.8000016
  60.1200008  62.3600006  37.4400020  62.1700048  62.0400047  37.1900010
  61.9500017  61.0000038  36.9900012  62.2800016  62.1500015  38.2700014
  63.3700037  62.5300026  36.5000010  63.2300043  62.9100037  35.5800009
  64.5900011  62.2600031  36.9400024  64.8300028  61.4500046  37.9900026
  64.1100025  60.9500027  38.4900022  65.7800055  61.2600040  38.2600021
  65.6600046  62.6400042  36.3000011  65.6400013  63.2500029  35.4800010
  66.5800047  62.4600029  36.6600013  58.3700037  64.5000029  37.1900010
  57.7600050  63.8400030  36.4300013  57.9800034  64.5100021  38.5100007
  58.5800028  65.0600052  39.1000009  56.7900038  63.8700008  39.0100026
  56.6000032  62.8900051  38.5700011  56.9800043  63.8300037  40.5100012
  55.9500027  63.9000034  40.8800030  57.4200010  64.7300053  40.9300041
  57.6700020  62.5200033  40.9300041  58.9500046  62.6600027  41.4300013
  59.3900013  63.6300039  41.6200018  59.6000051  61.4900017  41.8900013
  60.5900049  61.6200018  42.3100042  59.0900040  60.1900005  41.6200018
  59.8500013  59.0900040  41.7799997  60.6900024  59.3100023  42.1900034
  57.8200006  60.0900030  41.0900021  57.3300028  59.1400051  40.8900023
  57.1000004  61.2400007  40.7700014  56.1600018  61.1900043  40.2600002
  55.5700016  64.7500038  38.6200023  54.4500017  64.2500019  38.6400008
  55.7600021  66.0700035  38.3100009  56.7100048  66.4200020  38.2800007
  54.7000027  67.0000029  37.8300023  53.8300037  66.8000031  38.4600019
  55.0300026  68.4800053  38.0000019  55.8600044  68.7300014  37.3300028
  53.9100027  69.4200039  37.5300026  53.0300045  69.1800022  38.1200027
  54.1000032  70.4200029  37.9300022  53.6900043  69.3200016  36.4700007
  55.3400040  68.8300037  39.3500018  56.2900019  68.6700010  39.4000030
  54.1300011  66.6400051  36.4100027  52.9000044  66.5200043  36.2500024
  54.9800014  66.1900043  35.4800010  55.9400034  66.1800051  35.7700014
  54.6800041  65.4600048  34.1900015  54.0700006  66.1400032  33.6000013
  56.0100031  65.3200054  33.4000015  55.9000015  64.6600008  32.5400019
  56.7400026  64.8300028  34.0500021  56.4300013  66.6800022  32.7800012
  56.6600037  67.3700047  33.6000013  55.6300020  67.0900011  32.1600008
  57.6700020  66.6000032  31.8600011  57.4300051  65.9100008  31.0400009
  58.4700012  66.1700010  32.4600005  58.1100035  67.9900026  31.3500023
  58.1100035  68.6300039  32.2300005  57.4400043  68.4700012  30.6300020
  59.5000029  68.0700016  30.8300018  59.7600031  69.0200043  30.6100011
  60.1200008  67.6600027  31.5000010  59.6800041  67.5600052  29.9700022
  53.9200020  64.1500044  34.2900014  53.2000017  63.7800026  33.3600020
  54.1800022  63.3800030  35.4000020  54.6800041  63.8700008  36.1300015
  53.7300014  62.0200014  35.7000017  53.4600019  61.5200043  34.7700024
  54.8100042  61.1700010  36.3800025  54.3900013  60.2100039  36.6900015
  55.0500011  61.6400051  37.3300028  56.0700035  60.8700037  35.5600023
  56.6000032  61.8100023  35.4600024  55.7100010  60.4900026  34.5900011
  56.9000006  59.7700024  36.1400008  56.3400030  58.8400030  36.2400007
  57.2600031  60.0600052  37.1200013  58.1300020  59.6100044  35.3300023
  58.8500023  60.4100037  35.5000019  57.9100037  59.6000051  34.2700005
  58.9400005  58.3800030  35.7600021  59.8800039  58.3700037  35.4400015
  59.0300035  58.2700014  36.7600012  58.4000015  57.6000023  35.3900027
  52.4100018  62.0000029  36.4600015  51.5900040  61.1700010  36.0900021
  52.1200037  62.9000044  37.4500012  52.9200029  63.4700012  37.6700020
  50.8800030  63.0600023  38.2100010  50.1500034  62.3200035  37.8700018
  51.1100006  62.5700045  39.7000027  50.1200008  62.6500034  40.1600027
  51.5300035  61.1500025  39.6700025  52.5100040  61.0100031  39.2200017
  51.4900017  60.8000040  40.7000017  50.7800007  60.5400038  39.1500020
  52.0400047  63.3700037  40.6400013  53.0800009  63.0900049  40.5700016
  52.0600033  64.4300032  40.3700018  51.7000008  63.2500029  41.6800022
  50.1300001  64.4900036  38.2000017  49.6000004  65.0000048  39.2400026
  50.0800037  65.1400042  37.0500016  50.3800011  64.6800041  35.6900024
  49.8000002  63.7700033  35.5400014  51.4400005  64.4800043  35.5800009
  49.8300028  65.6400013  34.7100019  48.8700008  65.3700018  34.2900014
  50.5800009  65.6800032  33.9200020  49.7600031  66.9800043  35.5500007
  49.0000010  67.6400042  35.0900006  50.7400036  67.4500036  35.5800009
  49.5300007  66.5000010  36.9600010  49.9900007  67.1600056  37.6900029
  48.0500031  66.7000055  37.3400021  47.6400042  67.8300047  37.4900007
  47.2400045  65.6400013  37.5200009  47.5400019  64.7500038  37.1700025
  45.9000015  65.6700039  38.0600023  45.3500032  66.5400028  37.6900029
  45.1000023  64.3900013  37.7000022  44.1100025  64.3800020  38.1400013
  45.6000042  63.5000038  38.1100011  44.8100042  64.0600014  36.2300014
  44.3700027  64.9700022  35.8300018  44.0500021  63.2900047  36.1300015
  46.0500002  63.7400007  35.4200006  47.1200037  63.3800030  35.8600020
  46.0100031  63.8800049  34.1300011  45.2100039  64.0700054  33.5500026
  46.7800045  63.4800053  33.6200023  45.8900023  65.8500051  39.5800018
  44.8400021  66.0300016  40.2300024  47.0200014  65.8300018  40.2800035
  47.9100037  65.7900047  39.8000026  47.1000004  66.0100031  41.7700005
  46.1900043  65.5700016  42.1800041  48.2500029  65.2600050  42.4300003
  49.2300034  65.5700016  42.0500040  48.3100033  65.4400015  43.9700031
  48.9900017  64.7200012  44.4200039  48.6400032  66.4700031  44.1100025
  47.3000002  65.3900051  44.3700027  48.0000019  63.7000036  42.1700001
  47.0200014  63.4000015  42.5600004  47.8900003  63.4700012  41.1100006
  48.8100004  63.1300020  42.6200008  47.2000027  67.4800014  42.1600008
  47.9400015  68.2200050  41.5200043  46.4600039  67.8900051  43.2100010
  45.7800007  67.3200035  43.6900043  46.5300035  69.2700052  43.7000036
  46.2600040  69.8800039  42.8500032  45.4400015  69.5700026  44.7399998
  45.2400017  70.6100035  44.9400043  45.7900000  68.9800024  45.5900002
  44.1900015  69.1100025  44.2700005  43.5300016  69.4500017  44.8900032
  47.8800011  69.7300053  44.2200041  48.6000013  69.0100050  44.8699999
  48.2400036  70.9200048  43.8000011  47.5700045  71.4200020  43.2300043
  49.5900011  71.3700056  43.7700033  50.1300001  70.7900047  43.0400038
  49.5400047  72.8200054  43.2600021  48.7100029  73.4000015  43.6400032
  50.7800007  73.7200022  43.4899998  50.7400036  74.6400023  42.9000044
  50.7400036  74.0600014  44.5200014  51.6100025  73.1500053  43.1000042
  49.3700027  72.6400042  41.8500042  49.4700003  73.5200024  41.4900017
  50.3800011  71.2600040  45.0800037  51.4500046  70.7000017  45.0200033
  49.8400021  71.6900015  46.2700033  48.6000013  72.5000048  46.5200043
  47.7800035  71.8600035  46.8500042  48.3400011  73.1800032  45.7100010
  49.0500021  73.3100033  47.7700043  48.1800032  73.6900043  48.3000040
  49.6900034  74.1300058  47.4400043  49.9300003  72.4800014  48.6100006
  49.2600012  71.8100023  49.1700029  50.5900002  73.1100035  49.2000008
  50.7100010  71.6600037  47.5200033  51.6100025  72.2200012  47.2600031
  51.0700035  70.2000046  47.8900003  52.1500015  69.8700047  48.4400034
  50.0700045  69.2800045  47.7000046  49.1600037  69.5700026  47.3800039
  50.2500010  67.8100014  47.8299999  50.7400036  67.5700045  48.7800026
  48.8700008  67.1100044  47.8000021  48.4500027  67.2300053  46.8000031
  48.9300013  65.6100035  48.0200005  49.3200016  65.4700041  49.0200043
  47.9800034  65.0800037  47.9000044  49.5600033  65.1600027  47.2500038
  47.9900026  67.7300024  48.6800003  48.4000015  67.7100039  49.5500040
  51.2000036  67.2400045  46.7700005  52.0500040  66.4400053  47.1500015
  51.1000013  67.6500034  45.4600000  50.3000021  68.2500029  45.3100014
  52.0500040  67.2600031  44.4099998  52.0200014  66.2100029  44.1400003
  51.6200018  68.0200052  43.1000042  52.2200012  68.9300013  42.9700041
  50.5500031  68.2300043  43.0299997  51.8400002  67.2000027  41.8400002
  51.1500025  66.3500023  41.8900013  51.3300037  67.9800034  40.6200027
  50.3300047  68.4000015  40.6599998  52.1000004  68.6900043  40.3100014
  51.3600016  67.2100019  39.8400021  53.2400036  66.6700029  41.6400003
  53.5700035  65.9600019  42.4000025  53.3000040  66.1800051  40.6599998
  53.9400005  67.5000048  41.6100025  53.4900045  67.7100039  44.8000002
  54.4700003  66.9800043  44.5200014  53.7000036  68.9600039  45.3000021
  52.9200029  69.6000051  45.1999998  54.9400043  69.5700026  45.7600021
  55.5600023  69.5000029  44.8600006  54.6300030  71.1300039  46.0400009
  53.6800003  71.1000013  46.5700006  55.7000017  71.7400026  46.9900036
  55.7100010  71.1700010  47.9200029  56.7000008  71.7000055  46.5600014
  55.4000044  72.7700043  47.1800041  54.5200014  71.9600058  44.7399998
  53.9800024  72.9000044  44.9100018  55.4700041  72.2800016  44.3300009
  53.9600039  71.4200020  43.9700031  55.5000019  68.7200022  46.9400024
  56.6800022  68.2700014  46.8000031  54.6900034  68.4400034  47.9400015
  53.7400007  68.7800026  47.8800011  54.9600029  67.6000023  49.1200018
  55.7900047  68.0200052  49.6800041  53.7600040  67.6200008  50.0700045
  52.8500032  67.3400021  49.5600033  53.7100029  68.6300039  50.4700041
  53.9200020  66.5800047  51.1600018  54.8200035  66.6500044  51.7700005
  53.9600039  65.5800009  50.6900024  52.7300024  66.6300011  52.1300030
  51.5600014  66.3000011  51.8000031  52.9200029  66.9600010  53.3000040
  55.4700041  66.2100029  48.8400030  56.5700006  65.8500051  49.1800022
  54.7200012  65.4000044  48.0400038  53.8300037  65.7500029  47.7300024
  55.0200033  63.9600039  47.8299999  55.3400040  63.5200024  48.7600040
  53.8400030  63.0700016  47.3800039  54.1200018  62.0400047  47.5700045
  52.6300049  63.1800032  48.3300018  52.2000027  62.1800041  48.2800007
  52.9400015  63.3700037  49.3600035  51.8500042  63.9100027  48.1100035
  53.3400011  63.4000015  45.9800005  53.1300020  64.4700050  45.8600044
  54.1200018  63.2600021  45.2300024  52.4200010  62.8700018  45.7800007
  56.2700033  63.8900042  46.9500017  57.1800041  63.1400013  47.2300005
  56.4100027  64.7700024  45.9600019  55.7700014  65.5400038  45.8600044
  57.6200008  64.7800016  45.1200008  57.7500010  63.7800026  44.7200012
  57.4000025  65.6700039  43.9100027  58.1300020  65.3600025  43.1700039
  57.4800014  66.7400026  44.1100025  56.1200047  65.3600025  43.3900023
  55.5300045  66.0300016  43.7300014  58.8700008  65.2600050  45.8200026
  59.9500036  64.8200035  45.5300045  58.6900043  66.1300039  46.8400002
  57.7700043  66.5300035  47.0700026  59.8000050  66.4500046  47.7700043
  60.6500006  66.6600037  47.1200037  59.4300032  67.6600027  48.5600042
  60.0100040  67.7900028  49.4800043  58.4200048  67.5500011  48.9600039
  59.6500015  69.0000010  47.7200031  59.2300034  68.9900017  46.7100000
  60.7300043  69.1200018  47.6500034  59.0800047  70.2400017  48.3300018
  58.0200005  69.9900055  48.3300018  59.1000032  71.1400032  47.7300024
  59.5900011  70.4500055  49.7400045  59.2200041  69.8200035  50.4300022
  60.4700041  71.2800026  50.2000046  61.0200024  72.1900034  49.5000029
  60.7400036  72.4300051  48.5600042  61.7300034  72.7700043  49.9100018
  60.9700012  71.1800051  51.4200020  60.3400040  70.7000017  52.0500040
  61.6300011  71.8800020  51.7300034  60.2700043  65.3800011  48.6000013
  61.4800024  65.2500010  48.8100004  59.3500042  64.5600033  49.0400028
  58.3700037  64.7100019  48.8000011  59.6400023  63.3300018  49.6800041
  60.3900051  63.4900045  50.4600000  58.3500051  62.9200029  50.3700018
  58.5100031  61.8800020  50.6500006  57.4700022  63.0400038  49.7300005
  58.1200027  63.6100054  51.6900015  58.5400009  63.1200027  52.6600027
  57.5000048  64.7700024  51.7500019  57.2500038  65.2300024  50.9000015
  57.4800014  65.4200029  52.5300026  60.1800013  62.2700024  48.7700033
  61.2500048  61.7600012  49.0600014  59.5300007  61.9800043  47.6400042
  58.7200022  62.5500011  47.4800014  60.1800013  61.0300016  46.6600037
  60.2000046  60.0100040  47.0300007  59.2700005  60.8800030  45.4200029
  59.7700024  60.4800034  44.5400000  58.9500046  61.8400049  45.0600004
  57.9400015  60.1500034  45.7200003  57.7000046  60.3100014  46.7700005
  56.6800022  60.6300020  44.9500036  56.5200043  61.6600037  45.2600002
  56.8400049  60.4900026  43.8800001  55.8300018  59.9600029  45.0500011
  58.1200027  58.6200047  45.5000019  58.9000034  58.1200027  46.0600042
  57.1900034  58.1300020  45.8100033  58.3300018  58.3100033  44.4700003
  61.6400051  61.3600016  46.3600016  62.4100018  60.4800034  46.0800028
  62.0500040  62.6500034  46.3700008  61.3600016  63.3700037  46.5100002
  63.3600044  62.9600048  45.7700014  63.3100033  63.9100027  45.2400017
  63.4800053  62.1900034  45.0100040  64.4700050  63.1300020  46.7700005
  65.6600046  63.2000017  46.3400030  64.1300011  63.1600046  48.0600023
  63.1300020  63.1200027  48.2100010  64.9800014  63.0600023  49.3200016
  65.4400015  64.0500021  49.4100046  63.9800024  62.7900028  50.4300022
  63.6000013  61.7700052  50.3500032  63.1300020  63.4400034  50.2400017
  64.5500040  63.1700039  51.8500042  64.9500036  64.1700029  51.8000031
  65.4100037  62.5500011  52.1200037  63.5200024  63.0800009  52.9700041
  63.2800007  62.0200014  53.0100012  62.6000023  63.6200047  52.7400017
  64.2000008  63.4200048  54.3300009  64.4200039  64.4700050  54.1800022
  65.0800037  62.7800035  54.4100046  63.2400036  63.2700014  55.4600048
  62.2600031  63.3800030  55.2200031  63.3400011  62.3400021  55.8700037
  63.4200048  63.9600039  56.1600018  66.1100054  61.9500017  49.2800045
  67.1600056  62.1300030  49.9400043  66.0000038  60.9800053  48.3500004
  65.2500010  61.0200024  47.6700020  66.8700027  59.8200035  48.0600023
  66.9000053  59.2600012  48.9900017  66.1700010  58.8200045  47.0800018
  65.2400017  58.4200048  47.4900007  65.8700037  59.5500040  45.8500004
  65.2300024  58.8000011  45.3800011  65.2800035  60.4700041  45.8700037
  66.7100048  59.6400023  45.1500034  67.0400047  57.5300026  46.9400024
  67.3000050  57.2700024  47.9600000  66.4700031  56.7100048  46.5000010
  67.9800034  57.7900028  46.4300013  68.2300043  60.2300024  47.6700020
  69.2100048  59.6800041  48.1400013  68.4100056  61.2400007  46.8800020
  67.6100016  61.8300009  46.7100000  69.7500038  61.7600012  46.4700031
  69.6300030  62.6500034  45.8600044  70.3200054  61.0200024  45.9100008
  70.5400038  62.3400021  47.7200031  71.7800045  62.0700026  47.8299999
  69.8200035  62.8800011  48.6800003  68.8600016  63.0800009  48.4300041
  70.4300022  63.3000040  49.8700047  71.4500046  63.6600018  49.7400045
  69.6800041  64.5100021  50.3300047  69.6700048  65.2500010  49.5200014
  70.3000021  64.8800039  51.1500025  68.4000015  64.2600012  50.8300018
  68.0500031  63.5400009  50.3000021  70.4200029  62.2400045  51.0400009
  70.9200048  62.4800014  52.1200037  69.9100018  60.9900045  50.7900047
  69.4900036  60.7500029  49.9100018  69.8900032  59.9200010  51.8300009
  70.5000019  60.1900005  52.7000046  68.4400034  59.6600008  52.3100042
  68.4200048  58.7400007  52.9200029  67.7200031  59.4600010  51.5200043
  67.9100037  60.7800007  53.1900024  66.8700027  60.5200052  53.3700037
  67.7400017  61.6500044  52.5400019  68.5700035  61.1200047  54.5000029
  69.6200037  61.3000011  54.2700005  68.5500050  60.2200031  55.1100016
  67.8600025  62.2500038  55.2000046  66.8000031  61.9900036  55.1900005
  67.9100037  63.1700039  54.6100044  68.4100056  62.4600029  56.5500021
  68.4700012  61.6100025  57.0800018  69.3000031  62.9400015  56.4700031
  67.7000046  63.0000019  57.0300007  70.5100012  58.5700035  51.4600039
  70.7000017  57.8100014  52.3700047  70.8300018  58.3500051  50.1700020
  70.6700039  59.0900040  49.4900036  71.3000011  57.0400047  49.6700001
  71.5200043  56.5700006  50.6200027  70.1500034  56.1800003  49.1900015
  70.4800034  55.3700018  48.5300016  69.6800041  56.8700027  48.5000038
  68.9800024  55.5300045  50.3700018  72.6000023  57.0600033  48.7500000
  72.8800058  56.0700035  48.0800009  73.2600021  58.1700039  48.5200024
  72.9300022  59.0100050  48.9700031  74.4300032  58.2500029  47.6000023
  74.5400047  57.4000025  46.9300032  74.3600035  59.5000029  46.6500044
  75.3000021  59.3800020  46.1100006  74.4100046  60.3700018  47.3000002
  72.9900026  59.5400047  45.4700041  75.7400036  58.2200050  48.4400034
  76.7100048  57.5100040  48.1800032  75.6100035  58.8000011  49.6600008
  74.7300053  59.2100048  49.9200010  76.7500019  59.0200043  50.5200005
  77.6600027  59.0600014  49.9100018  76.6000032  60.3800011  51.2800026
  75.8300018  60.4800034  52.0400047  76.3900042  61.2100029  50.6100035
  77.9100037  60.7200050  52.0300007  78.7100029  60.3700018  51.3500023
  77.9500055  60.1400042  52.9500008  78.1200027  62.2700024  52.1800041
  78.9600039  62.3900032  52.8700018  77.2300053  62.6400042  52.6900005
  78.2900047  63.1000042  50.8800030  77.3700047  62.8900051  50.3400040
  79.2200041  62.7800035  50.4100037  78.3100033  64.6000051  51.2000036
  79.2100048  64.8800039  51.5900040  78.1900024  65.1800013  50.3800011
  77.6500034  64.7500038  51.9500017  77.1000051  57.7800035  51.4000034
  77.3100042  57.8400040  52.5700045  76.9700050  56.6300011  50.7900047
  76.6400051  56.6800022  49.8400021  77.1500015  55.3300047  51.3400030
  77.4700022  55.5100012  52.3600006  75.7800055  54.5700026  51.2500048
  75.8600044  53.5700035  51.6600037  75.4900026  54.4400024  50.2000046
  74.6600056  55.0800037  52.1200037  74.1000032  54.5400047  53.2600021
  73.1700039  55.4000044  53.6400032  72.5300026  55.2100039  54.4900036
  73.0600023  56.4400005  52.8400040  72.3600054  57.1600008  52.9200029
  73.9500046  56.2300014  51.8300009  74.1500044  56.9100046  51.0100031
  78.2600021  54.5800018  50.6200027  78.5500050  54.8500013  49.4300032
  78.7700033  53.4600019  51.2500048  78.5200024  53.0000019  52.6200008
  77.5200033  52.5900030  52.7100039  78.6100054  53.8900042  53.2500029
  79.5800018  51.9800043  52.9600048  79.2200041  51.3000011  53.7300014
  80.5300045  52.3700047  53.3200026  79.8600054  51.2600040  51.6200018
  79.1600037  50.4300022  51.5300035  80.8800030  50.8700037  51.5600014
  79.6200037  52.3800039  50.6100035  80.5800056  52.7900028  50.3300047
  79.0400028  51.7700005  49.3000031  77.8600025  51.5600014  49.2300034
  79.9000025  51.5400028  48.3200026  80.8900070  51.7500019  48.3900023
  79.4300032  51.2300014  46.9200039  78.9600039  52.1400023  46.5500021
  80.7100010  50.9100008  46.1500025  80.9300041  49.8400021  46.1700010
  81.5400028  51.4400005  46.6000032  80.5000019  51.3500023  44.6800041
  80.3500080  52.4300003  44.7000027  79.6500015  50.8700037  44.2000008
  81.6800022  51.1000013  43.7100029  82.6200008  51.9200039  43.6800003
  81.6700077  50.0200033  43.0700016  78.3300018  50.1700020  46.8500042
  77.3200035  50.3100014  46.0900021  78.4900045  49.0900040  47.5600004
  79.3600035  49.0600014  48.0800009  77.6100016  47.9300022  47.5600004
  77.3600054  47.6400042  46.5300035  78.2600021  46.7900038  48.3500004
  77.5200033  45.9900045  48.4300041  79.1100025  46.3700008  47.8100014
  78.6100054  47.1600008  49.3100023  76.2900019  48.1900024  48.3200026
  75.3900051  47.3800039  48.1400013  76.0900021  49.2200041  49.1000032
  76.8100023  49.8900032  49.2700005  74.8800039  49.4500017  49.9200010
  74.2000055  48.6000013  50.0300026  75.3400040  49.8900032  51.3400030
  74.5100021  50.2400017  51.9400024  76.0300016  50.7300043  51.3200045
  76.1000013  48.8800001  52.2500038  76.2400055  49.4400024  53.1600046
  77.1200037  48.7100029  51.9000006  75.3100014  47.5900030  52.5000048
  75.5600023  46.8600035  51.7300034  74.2400026  47.8000021  52.5600004
  75.7400036  47.0300007  53.8500023  75.4200029  47.7300024  54.6100044
  76.8300056  46.9200039  53.8800049  75.0700045  45.7200003  54.0700006
  74.0700054  45.8400011  53.9700031  75.3500032  45.0300026  53.4100008
  75.2800035  45.3299999  54.9900007  73.9600039  50.5500031  49.3600035
  72.9300022  50.8500004  49.9100018  74.3300056  51.2000036  48.2500029
  75.1300049  50.9100008  47.6900005  73.5100031  52.2900009  47.6800013
  73.3200026  53.0300045  48.4500027  74.3400049  52.9800034  46.5799999
  73.8900042  53.9000034  46.2000036  74.5100021  52.3700047  45.7000017
  75.7200050  53.5500002  47.0400000  76.1500025  52.7900028  47.7100039
  75.4600048  54.3900013  47.6800013  76.8000031  53.9700031  46.0800028
  76.3000059  54.5400047  45.3000021  77.1000051  53.0400038  45.6000042
  77.9600048  54.6300030  46.7000008  77.9400015  54.6600008  47.7100039
  79.1400051  55.0000048  46.2200022  79.2500019  55.1100016  44.8900032
  78.4800053  54.9900007  44.2400026  80.1500034  55.1200008  44.4300032
  80.1399994  55.2700043  47.0500040  80.1399994  55.1500034  48.0500031
  81.0500050  55.4600048  46.6400003  72.2200012  51.7900038  47.1400023
  71.1700010  52.4300003  47.2900009  72.0700026  50.5900002  46.4800024
  72.8700018  50.0000000  46.3600016  70.8300018  50.0900030  45.8900023
  70.3000021  50.9600019  45.5200005  71.2000036  49.2600012  44.7100019
  72.0400047  48.5800028  44.8699999  71.7200041  50.0100040  44.1100025
  70.1000023  48.4900045  43.9499998  70.5000019  48.1600046  42.9900026
  69.3100023  49.2200041  43.7400007  69.3800020  47.1000004  44.8900032
  70.5000019  45.7900000  44.5700026  70.3000021  45.4100037  43.5600042
  71.5200043  46.1700010  44.6400023  70.3100014  44.8900032  45.1700020
  70.0000048  49.4300032  47.0100021  68.8400030  49.7000027  47.0600033
  70.5400038  48.6400032  47.9300022  71.8300056  47.9400015  47.8200006
  72.6200056  48.6500025  48.0400038  71.8900013  47.5400019  46.7900038
  71.7100048  46.8000031  48.7800026  72.6800013  46.3700008  49.0700006
  70.9800053  46.1000013  48.3800030  70.9600019  47.4900007  49.9200010
  71.6000032  48.2600021  50.3600025  70.6800032  46.8700027  50.7600021
  69.8500013  48.2500029  49.1500044  69.0900040  47.5000000  48.9500046
  69.2500019  49.3700027  49.9500036  68.0600023  49.2200041  50.3700018
  69.9700022  50.4800034  50.1300001  70.9000015  50.5100012  49.7300005
  69.4500017  51.7400026  50.6100035  69.0800047  51.6500044  51.6300011
  70.5400038  52.8100014  50.6400013  70.7200050  53.1600046  49.6200037
  71.3900042  52.2800016  51.0700035  70.1900053  54.3100023  51.6000032
  68.1500053  52.1800041  49.8600006  67.0700026  52.1800041  50.4300022
  68.4500027  52.5500011  48.5700035  69.4100046  52.3600006  48.3100033
  67.5100040  53.2400036  47.7000046  67.3100042  54.2800045  47.9500008
  68.1100035  53.3500004  46.3100004  67.3000050  53.4400034  45.5900002
  68.8500023  54.1600037  46.2900019  68.6300039  52.4200010  46.0900021
  66.1500025  52.5500011  47.5600004  65.0600052  53.0700016  47.7300024
  66.1300039  51.3200045  46.9600010  67.0100021  50.8300018  46.8400002
  64.8500013  50.7100010  46.5600014  64.4100046  51.5000010  45.9500027
  65.0800037  49.3600035  45.8700037  64.3100023  48.6300039  46.1000013
  65.9800053  48.9800024  46.3700008  65.2800035  49.4100046  44.4000006
  65.8000040  48.5000038  44.1300011  65.9400034  50.2500010  44.1700029
  63.9800024  49.6400023  43.5600042  62.8600025  49.5700026  44.1600037
  64.0000010  49.5200014  42.3200035  63.9600039  50.5200005  47.8000021
  62.7600050  50.6600046  47.7000046  64.4900036  50.2500010  48.9800024
  65.5000019  50.1600027  49.1000032  63.6300039  50.1900005  50.1700020
  62.6600027  49.7200012  49.9800014  64.3800020  49.4800043  51.3400030
  63.7700033  49.7000027  52.2200012  65.3700018  49.8900032  51.5000010
  64.7100019  48.0100012  51.1900043  64.6900034  47.2500038  52.2000027
  64.7000027  47.4100018  50.0500011  63.2600021  51.6100025  50.6300020
  62.0800018  51.8400002  50.9800005  64.1300011  52.6300049  50.5500031
  65.0300026  52.4100018  50.1400042  63.7700033  54.0200043  50.7600021
  63.4500027  54.1200018  51.8000031  65.0100040  54.8900032  50.5800009
  65.2600050  54.9700022  49.5300007  65.8000040  54.3000031  51.0600042
  64.9100018  56.2900019  51.2800026  64.1400051  57.3100042  50.7600021
  63.4900045  57.2400045  49.9000025  64.0400028  58.5200024  51.4600039
  63.4900045  59.3700027  51.1200047  64.7500038  58.7500048  52.7000046
  64.5400047  59.8400021  53.4500027  64.9100018  59.7600031  54.3300009
  65.5300045  57.6800013  53.1500006  66.0500050  57.8000021  54.0900040
  65.5700016  56.4300013  52.5100040  66.3200045  55.7200003  52.8000021
  62.7300024  54.5800018  49.8700047  61.7900038  55.1200008  50.3900003
  62.7700043  54.3600035  48.5400009  63.6400032  53.9400005  48.2300043
  61.7300034  54.6900034  47.5800037  61.5300035  55.7500029  47.6700020
  62.1000051  54.5100021  46.0900021  61.2500048  54.7600031  45.4500008
  62.3900032  53.4600019  45.9800005  63.2600021  55.3800011  45.6300020
  63.9800024  55.6200027  46.4100027  64.0500021  54.7700024  44.5100021
  63.4900045  54.8500013  43.5800028  65.0500011  55.1800013  44.4300032
  64.2700052  53.7000036  44.5400000  62.7000046  56.7100048  45.1700020
  62.3300028  57.3700047  45.9700012  63.5200024  57.1500015  44.6200037
  61.9000006  56.5900040  44.4400024  60.3100014  54.1600037  47.9700041
  59.3100023  54.8700047  47.9700041  60.2300024  52.8800011  48.3100033
  61.0400009  52.3200035  48.5600042  58.9500046  52.1400023  48.5700035
  58.3800030  52.0800018  47.6400042  59.2600012  50.7500029  49.0300035
  59.8900032  50.1900005  48.3400011  58.3300018  50.1700020  49.1500044
  59.7700024  50.7100010  50.3000021  60.6900024  51.0000038  50.3400040
  58.0600023  52.7800035  49.7100019  56.8300009  52.6900005  49.5900011
  58.5400009  53.6100006  50.6100035  59.5300007  53.8600016  50.5500031
  57.7600050  54.1800022  51.7700005  57.0100021  53.4400034  52.0500040
  58.7100029  54.1800022  52.9500008  59.5800018  54.7700024  52.6500034
  57.8900051  54.8900032  54.0300035  57.7900028  55.9600019  53.8400030
  56.9200039  54.4000006  54.0800047  58.3700037  54.7500038  55.0100040
  59.0100050  52.7700043  53.5300016  59.5400047  52.2000027  52.7600002
  59.6900034  52.8300047  54.3800020  58.0800009  52.2700024  53.8200045
  57.1500015  55.5200005  51.3500023  55.9600019  55.7900047  51.6300011
  58.0100012  56.3800049  50.7500029  58.9900017  56.1800003  50.6000042
  57.4800014  57.6400042  50.0700045  56.6900015  58.0300045  50.7100010
  58.5500050  58.6900043  49.8700047  58.1400013  59.5600033  49.3500042
  58.9900017  59.0200043  51.3300037  58.0900049  59.3100023  51.8700027
  59.4200039  58.2000017  51.9100046  59.6600008  59.8800039  51.2700033
  59.7300005  58.1600046  49.0200043  59.4000006  57.7700043  48.0500031
  60.4400015  58.9800024  48.8600016  60.2100039  57.3300028  49.5400047
  56.6300011  57.3900032  48.8300037  55.6900024  58.1200027  48.5400009
  56.9100046  56.3000011  48.0800009  57.7800035  55.8200026  48.1600046
  55.8600044  55.8300018  47.1400023  55.5000019  56.7100048  46.5900040
  56.3900042  54.7300005  46.3300037  55.4900026  54.3400049  45.8700037
  56.7100048  53.9000034  46.9600010  57.4600029  55.0700045  45.1999998
  58.1400013  55.7800007  45.6599998  58.2400036  53.8600016  44.7000027
  58.9200020  54.1500044  43.8900042  58.8500023  53.4100008  45.4800034
  57.5500011  53.1900024  44.1600037  56.7800045  55.8200026  44.0799999
  57.5400019  55.9700012  43.3100033  56.0400009  55.1500034  43.6400032
  56.3000011  56.7700005  44.2600012  54.5200014  55.3300047  47.8700018
  53.4300041  55.4600048  47.2800016  54.4900036  54.9100018  49.1300011
  55.3200006  54.6800041  49.6600008  53.2500029  54.6600008  49.8200035
  52.5600004  54.2500019  49.0800047  53.4100008  53.6500025  50.9600019
  53.6500025  54.2000008  51.8700027  54.2500019  53.0200005  50.6600046
  52.1100044  52.8600025  51.1100006  52.0600033  51.7700005  50.5200005
  51.0800028  53.3300018  51.7300034  51.0800028  54.1900015  52.2600031
  50.2800035  52.7200031  51.6900015  52.5600004  55.9400034  50.1900005
  51.3700008  55.9500027  50.1600027  53.2700014  56.9500017  50.6200027
  54.2800045  56.8800020  50.5600023  52.7100039  58.3000040  50.9400034
  51.9800043  58.1300020  51.7200041  53.7600040  59.3300009  51.3900042
  54.6800041  59.1900015  50.8200026  53.9800024  59.1100025  52.4400043
  53.4800005  60.8300018  51.2600040  52.5300026  61.1100006  51.7000008
  53.5200024  61.0600042  50.1800013  54.6100044  61.6300011  51.9100046
  55.7600021  61.2500048  52.1100044  54.3600035  62.8700018  52.3700047
  53.3900023  63.1600046  52.2700024  55.1100016  63.5100031  52.5600004
  52.0000029  58.8100004  49.6000004  51.1400032  59.6700048  49.6900034
  52.3400021  58.4400034  48.3500004  53.0900002  57.7600050  48.3300018
  51.7200041  58.7900019  47.0500040  51.3500023  59.8100042  47.0800018
  52.8600025  58.5900021  46.0000038  53.2900047  57.6300049  46.2900019
  53.6500025  59.3000031  46.2600040  52.4800014  58.7300014  44.5500040
  51.5900040  58.1600046  44.2799997  52.2000027  60.2000046  44.1100025
  51.9900036  60.0900030  43.0500031  51.3100004  60.5700016  44.6100044
  53.0800009  60.8500051  44.1400003  53.6000013  58.0800009  43.7200022
  53.3400011  58.0300045  42.6600027  54.5100021  58.6200047  43.9600039
  53.7500048  57.0500040  44.0500021  50.5200005  57.9000044  46.9200039
  49.4400024  58.4000015  46.6900015  50.7700014  56.6100025  47.0200014
  51.7200041  56.2800026  47.0200014  49.7800016  55.5500031  46.8400002
  49.0400028  55.9000015  46.1199999  50.5200005  54.2700005  46.3300037
  49.7200012  53.5400009  46.3500023  51.3300037  53.9000034  46.9700003
  51.1000013  54.3400049  44.6100044  48.9600039  55.3000021  48.1200027
  48.8300037  54.1600037  48.6000013  48.4200001  56.3500023  48.6800003
  48.6400032  57.2200012  48.2200003  47.1700001  56.3700008  49.4400024
  46.6500044  55.4400015  49.2300034  47.3600006  56.3800049  50.9800005
  46.3600016  56.5900040  51.3600016  47.9900026  55.0900030  51.5400028
  48.9400005  54.8200035  51.0900021  48.1100035  55.2500010  52.6100016
  47.3600006  54.2200041  51.3200045  48.3900023  57.4700022  51.3600016
  48.1800032  58.4600019  50.9600019  48.3700037  57.7000046  52.4200010
  49.3700027  57.2000027  50.9800005  46.3700008  57.6000023  48.9100027
  45.1800013  57.6000023  49.1700029  46.8700027  58.6700010  48.3000040
  47.8700018  58.6900043  48.1600046  45.9600019  59.6100044  47.5500011
  45.3600025  60.1500034  48.2800007  46.6800022  60.6000042  46.5700006
  45.9500027  61.3800049  46.3700008  46.8700027  60.0800037  45.6200027
  47.8900003  61.3900042  47.1300030  48.6900043  60.7000017  47.4400043
  48.4400034  62.2000027  45.9600019  49.0300035  61.5200043  45.3500032
  47.6400042  62.6500034  45.3700018  49.0500021  63.0300045  46.3500023
  47.5000000  62.3400021  48.3100033  46.7300034  63.0800009  48.1000042
  46.9700003  61.7200041  49.0300035  48.3300018  62.8700018  48.7900019
  44.9600029  58.9300013  46.6100025  43.7900019  59.2200041  46.6200018
  45.2600002  57.7700043  46.0200024  46.2400007  57.5300026  46.0300016
  44.3400002  57.1000004  45.0700045  44.1100025  57.9300022  44.4000006
  45.1300001  55.9600019  44.3700027  46.0600042  56.2500048  43.8800001
  44.5300007  55.7600021  43.4800005  45.4200029  54.8200035  45.2300024
  46.3000011  54.8500013  46.3300037  46.0500002  53.6500025  46.9099998
  46.5400028  53.2900047  47.8100014  45.0800037  52.9600048  46.2800026
  44.9400043  51.9600010  46.4400005  44.6500015  53.6800003  45.2200031
  43.9800024  53.3400011  44.4500017  42.9900026  56.5800047  45.6500006
  42.0700026  56.2200022  44.8500013  42.8400040  56.5100050  46.9400024
  43.6900043  56.6300011  47.4600029  41.5799999  56.0500050  47.6000023
  41.1100006  55.2900028  46.9500017  41.9800043  55.6700039  49.0600014
  41.0600042  55.4800034  49.6200037  42.4500036  56.5000010  49.5800018
  42.9500008  54.4600010  49.2200041  43.8200045  54.6800041  48.6100006
  42.4100018  53.6200047  48.7700033  43.4000015  54.0300035  50.6100035
  44.0400028  52.9400015  50.8300018  42.8900003  54.6800041  51.5600014
  40.5000019  57.1600008  47.6200008  39.3000031  56.8400049  47.7700043
  40.9600019  58.4500027  47.3900032  41.9200039  58.5500050  47.1000004
  40.0300026  59.6000051  47.3800039  39.0000010  59.2300034  47.3200035
  39.9900007  60.4600048  48.6800003  39.7700024  59.7800016  49.5000029
  39.2200017  61.2100029  48.4600019  41.3100004  61.1500025  49.1500044
  41.6400003  61.9200039  48.4400034  42.0600033  60.3800011  49.2800045
  41.2400007  61.9600010  50.4800034  41.0500002  61.2800026  51.3200045
  40.5200005  62.7800035  50.4500008  42.5300026  62.7000046  50.6100035
  42.7800035  63.3800030  49.7900009  43.3400011  61.9700050  50.6300020
  42.5699997  63.5000038  51.8900013  41.9500017  64.2800045  51.9500017
  42.3600006  62.9100037  52.6900005  43.5100031  63.8800049  52.0300007
  40.2500010  60.5200052  46.3000011  39.3400025  60.9400034  45.7100010
  41.5200043  60.8900023  46.0100031  42.2399998  60.5400038  46.6100025
  41.8700027  61.6000032  44.8400021  41.2100029  62.4600029  44.7399998
  43.2800007  62.1800041  45.0400019  43.8800001  61.2700033  45.1000023
  43.8300037  63.0500031  43.8500023  43.4400034  62.8800011  42.8500032
  43.5600042  64.0900040  44.0600014  44.9100018  62.9000044  43.8900042
  43.4300041  62.8900051  46.2500000  42.6000023  63.3300018  46.4400005
  41.9600010  60.7700014  43.5800028  42.7200031  59.7900009  43.5600042
  41.1600018  61.0600042  42.5400019  40.2300024  62.1900034  42.4900007
  40.7200003  63.1200027  42.1900034  39.7900009  62.3600006  43.4700012
  39.1400027  61.7400026  41.4400005  38.9400029  62.5500011  40.7600021
  38.2800007  61.3300037  41.9600010  39.8300028  60.6100035  40.5200005
  39.9700022  60.9000015  39.4700027  39.1100025  59.7900009  40.5000019
  41.1500025  60.3500032  41.2400007  41.3300037  59.2800045  41.4000034
  42.4100018  60.8000040  40.4300022  42.6900005  62.0100021  40.2500010
  43.1500006  59.9000025  39.9000025  42.9800034  58.9500046  40.1900005
  44.3800020  60.0000048  39.0100026  44.4900036  61.0500050  38.7300014
  45.6400013  59.6200037  39.7700024  46.4100027  59.5300007  39.0100026
  46.0100031  60.7200050  40.7700014  45.2700043  60.7700014  41.5799999
  46.9900036  60.5600023  41.2300014  46.0400009  61.7000008  40.2900028
  45.6200027  58.3800030  40.5800009  46.5600014  58.2800007  41.1300039
  44.8300028  58.4200048  41.3199997  45.4100037  57.5200033  39.9400020
  44.2000008  59.0900040  37.8200006  43.3300018  58.2200050  37.7900028
  45.0600004  59.3600035  36.8500018  45.8200026  60.0200033  36.9600010
  45.0300026  58.6100006  35.5700016  44.0500021  58.7100029  35.1000023
  46.0700035  59.2400026  34.6300006  46.1199999  60.3200006  34.7200012
  45.7100010  59.1200018  33.6100006  47.3400021  58.6400032  34.7700024
  47.9300022  59.3900013  34.7400022  45.2600002  57.0700026  35.6600022
  45.7100010  56.6200018  36.7200017  44.8200035  56.3300037  34.6200013
  44.4800043  56.8200016  33.8100004  44.8699999  54.8300028  34.5100021
  44.3300009  54.4400024  35.3600025  44.1000032  54.4300032  33.2200027
  43.0299997  54.5400047  33.4800005  44.2300034  53.3600044  33.1300020
  44.4800043  55.1800013  31.8900013  45.5600023  55.7700014  31.8000007
  43.7100029  55.1100016  30.9200025  46.2800026  54.2700005  34.6700025
  46.4500046  53.2600021  35.4300022  47.3000002  54.8700047  34.0900016
  46.9600010  55.6600046  33.5600019  48.7300014  54.4100046  34.1200018
  48.6400032  53.3200026  34.1700006  49.4800043  54.8700047  32.8600025
  50.4700041  54.4300032  32.9100013  49.5500040  55.9600019  32.9100013
  48.8200045  54.4200039  31.5300012  47.7800035  54.7300005  31.6200018
  48.7400007  53.3300018  31.4500022  49.5900011  54.9200010  30.2800012
  48.9700031  54.6900034  29.4100022  50.5000019  54.3100023  30.1700020
  49.8400021  56.3900042  30.3300023  49.0400028  57.0100021  30.4200006
  50.9900045  57.0300007  30.1700020  52.1100044  56.4300013  29.8500013
  52.1000004  55.4500008  29.6300006  52.9200029  57.0100021  29.7200012
  51.0800028  58.2900047  30.1100016  50.3000021  58.8400030  30.4600024
  51.9300032  58.7200022  29.7800016  49.3400002  54.6900034  35.4700017
  50.0000000  53.8100004  36.0400009  49.0300035  55.8400011  36.1500025
  48.4000015  56.5100050  35.7200027  49.3600035  56.1000013  37.6000023
  50.4400015  56.0200024  37.7300024  49.1700029  57.5900030  37.9600024
  48.2200003  57.9600048  37.5700021  49.2900038  57.8600025  39.4400024
  48.7900019  58.8100004  39.6000028  48.5500002  57.2300005  39.9500012
  50.2500010  57.7200031  39.9400020  50.1500034  58.4700012  37.3100019
  50.2300024  58.1000042  36.2900019  49.8100042  59.5100021  37.3800015
  51.1800003  58.3300018  37.6000023  48.6500025  55.1800013  38.5400009
  49.2300034  54.5600033  39.4500017  47.3300028  54.9600029  38.2900023
  47.0500040  55.4800034  37.4600029  46.4600039  54.1700029  39.1500020
  46.4100027  54.5100021  40.1900005  45.0100040  54.0100002  38.7300014
  45.0500011  53.7200022  37.6800013  44.0100002  53.2300043  39.5400023
  43.0200005  53.2900047  39.0800023  44.1800022  52.1600008  39.5200014
  44.0000010  53.5600042  40.5800009  44.5100021  55.3400040  38.8100028
  44.8400021  55.7400036  38.0000019  47.0000029  52.7400017  39.2100024
  46.9800043  52.1600008  40.3000021  47.5200033  52.1500015  38.1300020
  47.4800014  52.6900005  37.2700024  48.1600046  50.8000040  38.1200027
  47.3400021  50.1000023  38.2400012  48.8000011  50.4900026  36.7200017
  49.5400047  51.2700033  36.5000010  48.0000019  50.5200005  35.9800029
  49.4300032  49.0700006  36.5300012  48.5500002  48.4300041  36.5100026
  50.0500011  48.8300037  37.3900008  50.1600027  48.9500046  35.1700020
  50.9600019  49.6800041  35.0400019  49.4600010  49.0500021  34.3400025
  50.8500004  47.5800037  35.1100016  51.6000032  47.5400019  35.9100008
  51.3100004  47.5000000  34.1200018  49.9500036  46.4600039  35.2800012
  50.4000044  45.6000042  35.5500007  49.2500019  46.5900040  35.9800029
  49.5300007  46.2900019  34.3700027  49.2100000  50.5500031  39.2400026
  49.1200018  49.6700001  40.0900030  50.1100016  51.5300035  39.2800021
  50.0200033  52.3200035  38.6600018  51.2100029  51.4500046  40.2800035
  51.6800022  50.5000019  40.0400019  52.1700048  52.5700045  40.0100040
  53.0800009  52.3700047  40.5900002  51.6900015  53.4900045  40.3200006
  52.7300024  52.6400042  38.3000016  50.6600046  51.4700031  41.7100000
  51.2600040  50.8700037  42.6400042  49.5700026  52.1900034  41.9800043
  49.1700029  52.7200031  41.2200022  48.9800024  52.2800016  43.3300018
  49.7900009  52.1800041  44.0500021  48.4000015  53.6700010  43.7100029
  48.1900024  53.5300016  44.7700024  47.5000000  53.8000011  43.0900002
  49.5900011  54.9900007  43.4700012  47.8800011  51.2000036  43.7000036
  47.4300003  51.1600018  44.8699999  47.4000025  50.3700018  42.8200006
  47.7800035  50.4400015  41.8800020  46.2900019  49.4100046  43.0400038
  45.9500027  49.2600012  44.0700006  45.0400019  49.9100018  42.2900009
  44.2300034  49.1900015  42.4400043  44.5300007  51.2200022  42.7800035
  45.3600025  51.9100046  42.6500034  43.5500002  51.3500023  42.3100042
  44.4099998  50.9900045  43.8400030  45.2500010  50.0500011  40.9400034
  45.7600021  50.8400011  40.7500029  46.5300035  47.9600000  42.5900030
  45.9100008  47.0200014  43.1700039  47.2200012  47.8100014  41.5000010
  47.4300003  48.6400032  40.9600019  47.6900005  46.5500021  40.9700012
  46.8900013  45.8800030  41.3000011  47.7400017  46.5700006  39.3700027
  48.1000042  45.6300020  38.9500022  48.4700012  47.3500013  39.1400027
  46.3600016  46.8100023  38.7800026  46.0900021  47.8700018  38.8600016
  45.5400038  46.3500023  39.3400025  46.3500023  46.3600016  37.3000026
  45.2300024  46.1900043  36.6900015  47.4100018  46.1800003  36.6500020
  49.0000010  46.0200024  41.5300035  49.3600035  44.8100042  41.3400030
  49.7200012  46.9200039  42.2200012  49.2300034  47.7800035  42.3699999
  51.1200047  46.7900038  42.3200035  51.4700031  45.7500029  42.2399998
  51.7900038  47.7100039  41.2800026  51.7500019  48.7400007  41.6499996
  51.3600016  47.6200008  40.2900028  53.1700039  47.3800039  41.2200022
  53.3400011  46.6400003  40.6500006  51.6300011  47.1600008  43.7400007
  51.0800028  48.1000042  44.2600012  52.6900005  46.5799999  44.3100023
  53.0100012  45.7800007  43.7800026  53.1800032  46.8500042  45.6100035
  52.9600048  47.8800011  45.8500004  52.5400019  45.7800007  46.5300035
  52.8800011  44.8400021  46.1100006  51.4600039  45.9700012  46.5700006
  53.0500031  45.7500029  47.9900026  54.1100025  45.9600019  48.0600023
  52.3100042  46.8500042  48.8100004  51.2300014  46.6900015  48.8600016
  52.6500034  46.8500042  49.8500013  52.4800014  47.8299999  48.3400011
  52.7200031  44.4700003  48.7300014  53.1500006  43.6199999  48.1900024
  53.1500006  44.5600033  49.7200012  51.6400003  44.2799997  48.8100004
  54.7000027  46.8200016  45.7100010  55.3500032  47.6000023  46.3900042
  55.2900028  45.7100010  45.1300001  54.6700048  45.0600004  44.6900034
  56.7500019  45.5200005  45.1600027  57.2000027  46.1100006  45.9500027
  57.2000027  44.1000032  45.6300020  58.2900047  44.0100002  45.7100010
  56.4200020  43.7900019  46.9700003  55.3500032  43.5900021  46.8600035
  56.8200016  42.8299999  47.3200035  56.7500019  44.5400000  47.6800013
  56.8400049  43.0000019  44.6400023  57.3200035  43.0299997  43.6700010
  57.1800041  42.0400000  45.0000000  55.7600021  42.9100037  44.5800018
  57.4600029  45.9500027  43.9100027  58.6400032  46.3000011  43.8900042
  56.7400026  46.0800028  42.7600002  55.7800007  45.8000040  42.8900003
  57.2200012  46.6500044  41.4800024  58.3100033  46.6600037  41.5100002
  56.7600012  45.6700039  40.3700018  56.9900036  46.1400032  39.4200015
  55.6800032  45.5300045  40.5000019  57.4400043  44.3400002  40.3400040
  58.6100006  44.2600012  39.9800014  56.7400026  43.2900000  40.5500031
  55.7900047  43.2000017  40.8800030  57.1800041  42.4100018  40.3000021
  56.7300034  48.0600023  41.2800026  56.6900015  48.5300016  40.1500034
  56.3200045  48.8400030  42.3100042  56.4900017  48.4700012  43.2400036
  55.8200026  50.2000046  42.2000027  54.9000025  50.3100014  41.6200018
  55.3600025  50.6600046  43.5800028  56.2400007  50.8500004  44.2200041
  54.7500038  49.8600006  43.9800024  54.4700003  51.9200039  43.6500025
  53.7500048  51.7600012  42.8500032  55.1100016  52.7800035  43.4600019
  53.7700033  51.9800043  45.0800037  53.5200024  53.0300045  45.1800013
  54.4300032  51.7500019  45.9100008  52.4800014  51.2200022  45.1900005
  52.0600033  50.8300018  44.3600035  51.8500042  51.0100031  46.3000011
  52.2500038  51.5000010  47.4600029  53.2100010  51.8000031  47.5100040
  51.6900015  51.2700033  48.2800007  50.8200026  50.1400042  46.3200045
  50.6000042  49.5400047  45.5400038  50.5500031  49.8300028  47.2400045
  56.8800020  51.1600018  41.6400003  56.4900017  51.8800020  40.7300043
  58.1600046  51.0800028  42.1200037  58.2700014  50.5100012  42.9400015
  59.2500019  51.9100046  41.5600014  58.9300013  52.9500008  41.5600014
  60.5500031  51.7900038  42.4600029  60.9800053  50.8000040  42.4000025
  60.3300047  52.0100021  43.5100031  61.5500021  52.9300022  42.2200012
  62.2200012  52.9300022  43.0800009  61.0300016  53.8800049  42.2399998
  62.3300028  52.8600025  40.8599997  63.1100035  53.6200047  40.8100033
  61.6700029  53.1400013  40.0400019  62.8600025  51.4800024  40.6599998
  62.8900051  50.8000040  41.4000034  63.3800030  51.0900021  39.5500016
  63.4600019  51.7000008  38.4200025  63.0800009  52.6200008  38.3000016
  64.0500021  51.2500048  37.7300024  63.8400030  49.9300003  39.6200013
  64.0600014  49.5700026  40.5299997  64.1600037  49.4300032  38.8000011
  59.4700050  51.5100002  40.0400019  59.2700005  52.3800039  39.2300010
  59.6600008  50.2500010  39.6200013  60.0700045  49.0700006  40.3800011
  59.2300034  48.8000011  41.0200024  60.8800030  49.1800022  41.1000013
  60.4400015  47.9800034  39.4100022  60.2700043  47.0200014  39.8700023
  61.5100050  48.1100035  39.2400026  59.7200012  48.3900023  38.0600023
  58.7500048  47.9200029  37.9300022  60.4100037  48.0900002  37.2800016
  59.5800018  49.9300003  38.1700015  60.4500008  50.3700018  37.6900029
  58.2900047  50.4500008  37.4300027  58.4600019  50.9300041  36.3000011
  57.1000004  50.4900026  38.0700016  57.0400047  50.2700043  39.0500021
  55.8600044  50.8900023  37.4500012  55.7700014  50.3700018  36.4900017
  54.7200012  50.3700018  38.3600020  54.8000050  50.9100008  39.3000031
  54.8800039  49.3100023  38.5300016  53.0400038  50.7600021  37.7600026
  55.9400034  52.3900032  37.1600008  55.7000017  52.7300024  35.9800029
  56.3500023  53.2100010  38.1700015  56.5200043  52.8000021  39.0800023
  56.5800047  54.6400023  37.9700017  55.7200003  55.0900030  37.4600029
  56.7000008  55.3700018  39.3200016  57.1800041  56.3200045  39.0700030
  57.3200035  54.8400021  40.0400019  55.2700043  55.5500031  40.0000000
  54.9800014  54.8500013  41.1600018  55.7100010  54.1700029  41.5600014
  53.7100029  55.0300026  41.7799997  53.2900047  54.5600033  42.6500034
  52.7300024  55.8500004  41.1100006  51.7300034  55.9800005  41.4900017
  53.0200005  56.5400028  39.9300027  52.2800016  57.1300030  39.3900013
  54.3300009  56.3300037  39.3500018  54.6400023  56.7500019  38.4000015
  57.7300024  54.8500013  37.0500016  57.7600050  55.9100008  36.4400029
  58.6100006  53.9400005  36.8000007  58.5800028  53.0400038  37.2800016
  59.7900009  54.1000032  35.9000015  60.0300026  55.1500034  35.8000016
  60.9800053  53.2800007  36.3800025  61.7000008  53.2800007  35.5700016
  60.7300043  52.2300005  36.5300012  61.5600014  53.8100004  37.5500011
  61.1100006  54.5900011  37.8800011  59.4600010  53.5600042  34.4700027
  60.3100014  53.7000036  33.5300016  58.3100033  52.9800034  34.2200017
  57.6200008  52.8900003  34.9500012  57.8400040  52.6400042  32.8400016
  58.6300039  52.6100016  32.0800018  57.3500013  51.2200022  32.9200006
  58.2500029  50.6200027  32.9900026  56.8900013  51.0800028  33.9100027
  56.5700006  50.9900045  32.2000027  56.8000031  53.6100006  32.2500014
  56.6200018  53.7000036  31.0400009  56.1300039  54.4200039  33.1500006
  56.1300039  54.1600037  34.1300011  55.4600048  55.6400013  32.8400016
  54.8700047  55.5000019  31.9300008  54.5000029  56.0400009  33.9600015
  55.0200033  55.9700012  34.9100018  53.6100006  55.4100037  33.9400005
  54.0000010  57.5200033  34.0300012  54.8600006  58.1500006  34.2300010
  53.2200003  57.9100037  32.7300024  52.2900009  57.3600006  32.6500010
  53.1200027  58.9900017  32.7900004  53.8400030  57.8900051  31.8300009
  53.1300020  57.7500010  35.2400017  53.5600042  57.1700048  36.0600019
  52.9200029  58.8200045  35.3200006  52.2000027  57.2400045  35.0100017
  56.5200043  56.7600012  32.6100016  57.2900009  57.1100044  33.4500027
  56.5600014  57.4000025  31.4100003  55.8500004  57.1700048  30.7400012
  57.4100018  58.5400009  31.0500026  58.3500051  58.5200024  31.6100025
  57.7400017  58.5000038  29.5600009  58.3000040  59.3500042  29.1700006
  56.8400049  58.4600019  28.9500022  58.5200024  57.2100019  29.3100023
  57.8000021  56.3900042  29.2900014  59.2600012  57.1800041  30.1200008
  59.2900038  57.2100019  27.9700017  58.7400007  56.6600037  26.9500017
  60.5000019  57.7300024  27.9200006  56.7100048  59.8700047  31.3700008
  57.1900034  60.6400013  32.2400022  55.5800009  60.1600027  30.8100009
  55.1600027  59.5600033  30.1100016  54.8900032  61.4300013  30.9100008
  54.8100042  61.8100023  31.9300008  55.5400038  62.5900030  30.1100016
  56.4300013  62.9400015  30.6300020  56.0800028  62.2000027  28.7100005
  56.8000031  61.3900042  28.7600017  55.1900005  61.9200039  28.1500006
  56.5300035  63.0400038  28.1900024  54.6200037  63.7300014  29.8300004
  55.1100016  64.3600035  29.0800023  53.6500025  63.3700037  29.4900012
  54.5200014  64.2600012  30.7700014  53.3900023  61.1200047  30.5200005
  53.0900002  60.2700043  29.6500015  52.4700022  61.8200016  31.2100005
  52.8500032  62.4800014  31.8800020  51.0300016  61.8300009  30.9600019
  50.6300020  60.8400011  30.8100009  50.2800035  62.4500036  32.1800017
  50.4900026  63.5100031  32.2800016  50.4100037  61.8000031  33.0500007
  48.7700033  62.3500013  31.9700027  48.3100033  62.2700024  30.7800007
  47.9800034  62.0600033  32.9500008  50.7300043  62.6900053  29.7100019
  50.6400013  63.9400053  29.8400021  50.7600021  62.0700026  28.5100007
  51.2000036  61.1600018  28.4500003  50.5400038  62.7600050  27.2700024
  51.2000036  63.6100054  27.0900011  50.8200026  61.8100023  26.0700011
  50.4900026  62.2400045  25.1300001  50.2300024  60.8900023  26.2100005
  52.3800039  61.6500044  25.9100008  52.7200031  61.2000036  26.8500018
  52.8200006  62.6400042  25.8400011  52.6700020  60.7600021  24.7200012
  52.7600002  59.5000029  24.8500013  52.9300022  61.3100052  23.6800003
  49.1000032  63.2500029  27.1000004  48.7900019  63.8400030  26.0600019
  48.2000017  62.9500008  28.0300021  48.5900021  62.5600052  28.8700008
  46.7300034  63.0800009  27.9500008  46.4500046  63.2000017  26.9100022
  46.0400009  61.8100023  28.3200002  44.9600029  61.7500019  28.2300019
  46.6500044  60.6800032  27.4700022  46.5700006  60.9200048  26.4200020
  47.7100039  60.6400013  27.7200007  46.1100006  59.7400045  27.5700021
  46.3300037  61.4000034  29.6300006  47.1800041  61.6300011  29.9700022
  46.1600018  64.2200041  28.7900019  44.9800014  64.6300030  28.5400009
  46.9200039  64.8000050  29.6400023  47.7800035  64.2900038  29.8400021
  46.4300013  65.8700037  30.5700016  45.4700041  65.6300020  31.0200024
  47.5100040  66.1000013  31.6300011  48.5200024  65.9900045  31.2600017
  47.2800016  65.2700043  32.3000026  47.4600029  67.4200010  32.4300027
  46.6600037  67.5200033  33.5700011  46.1000013  66.6600037  33.9200020
  46.5100002  68.7400055  34.2300010  45.8600044  68.7600040  35.0900006
  47.3600006  69.8300028  33.8400006  47.3800039  70.9500027  34.5600009
  47.9500008  71.5400028  34.0800023  48.1200027  69.7100019  32.6800013
  48.6100006  70.5900049  32.2900009  48.1200027  68.5800028  31.9400024
  48.6500025  68.5500050  31.0000014  46.2400007  67.1100044  29.6900010
  47.1300030  67.5400019  28.9500022  45.1100016  67.8100014  29.8600006
  44.4800043  67.4900055  30.5800009  44.8900032  69.1500044  29.2900014
  45.5600023  69.3200016  28.4500003  43.4400034  69.2100048  28.8200021
  42.7100039  69.0600014  29.6200013  43.2500029  70.5900049  28.1800008
  42.2100019  70.7000017  27.9000020  43.5700035  71.3900042  28.8600016
  43.8100004  70.7400036  27.2500014  43.1200027  68.3200026  27.5900006
  42.0800018  68.4700012  27.3100019  43.7300014  68.4700012  26.6900015
  43.1500006  67.2700024  27.8800011  45.1500034  70.1900053  30.4000020
  44.4600010  70.2800035  31.4500022  46.0400009  71.2000036  30.0700021
  47.0400000  71.1800051  29.0300012  46.5900040  71.0700035  28.0400014
  47.7600002  70.3700018  29.2200017  47.7000046  72.5700045  29.1300011
  47.1900034  73.2600021  28.4600019  48.7700033  72.4400043  28.9800024
  47.5200033  73.0500031  30.5200005  47.4300003  74.1200018  30.6300020
  48.3300018  72.7000046  31.1400008  46.2100029  72.3600054  30.9300017
  46.2600040  72.1300030  31.9900012  45.0200033  73.4500027  30.7400012
  44.5300007  73.7700033  29.6700025  44.3700027  73.7800026  31.8400025
  44.6000004  73.4200048  32.7500010  43.1000042  74.5300055  31.8200016
  43.1400013  75.1600027  30.9300017  42.0100021  73.4800053  31.8600011
  42.2800016  72.7100039  31.1300015  41.0600042  73.8800049  31.5100026
  41.8900013  72.7500057  33.2400012  41.5200043  73.4600019  33.9900017
  42.8700018  72.4000025  33.5800028  40.9200001  71.6300011  33.2000017
  41.2200022  70.8400011  32.5200009  39.9600029  71.9000053  32.7900004
  40.6800032  71.1400032  34.6300006  39.9000025  70.3900051  34.6900010
  40.4200029  72.0500040  35.1700020  41.8900013  70.5100012  35.2600026
  42.6500034  71.1700010  35.3500009  41.6499996  70.2300024  36.2000012
  42.1099997  69.6800041  34.7500014  42.9400015  75.6500053  32.8800011
  41.8500042  76.2100029  32.9400015  43.9800024  75.9900045  33.5400009
  44.8600006  75.6800032  33.1800008  44.0200043  76.8300056  34.8200011
  43.1300020  77.4600029  34.7900009  43.8300037  75.9100056  36.0300016
  44.7500038  75.3600025  36.1600018  42.9200029  75.3300047  35.8600020
  43.5200024  76.6800022  37.2800016  42.6500034  77.3200035  37.0800018
  44.3100023  77.3000050  37.7000022  43.1500006  75.6900024  38.4300017
  42.0600033  75.1100016  38.3700013  43.9300013  75.3900051  39.4000030
  45.2400017  77.7400017  34.9200010  46.3700008  77.3200035  34.5800018
  45.0200033  78.9300060  35.4400015  44.0600014  79.1700029  35.6500006
  46.1600018  79.7600031  35.9800029  47.0700026  79.1500044  36.0300016
  46.4500046  80.9899998  35.1100016  45.5900002  81.6600037  35.0400019
  46.6800022  80.5700016  34.1300011  47.6700020  81.7000008  35.6400013
  47.5100040  82.9900074  36.2000012  46.5200043  83.3800030  36.3900018
  48.7100029  83.7300014  36.4600015  48.5400009  84.6800041  36.9400024
  50.0000000  83.1400013  36.3900018  50.8600044  83.7400055  36.6600013
  50.1100016  81.8500042  35.8400011  51.0400009  81.3700008  35.6000018
  48.9600039  81.2000084  35.3800011  49.0500021  80.2900028  34.8100019
  45.7500029  80.1600075  37.4300027  44.6000004  80.4400063  37.7300024
  46.7000008  80.2000046  38.3100009  47.5200033  79.6800041  38.0200028
  46.5100002  80.6100082  39.7700024  45.4900026  80.9200001  39.9500012
  46.7700005  79.3900061  40.6100035  46.6400003  79.5800018  41.6700029
  47.7900028  79.0000057  40.5800009  45.8200026  78.2700014  40.2300024
  44.6300030  78.4200048  40.5100012  46.2800026  77.1500015  39.6500015
  47.2900009  77.0900059  39.6100020  45.7100010  76.3300037  39.4400024
  47.4800014  81.8000031  40.0600004  48.6500025  81.7000008  40.4200029
  46.8300009  82.9699993  39.9300027  45.8600044  83.0300045  39.6800017
  47.5000000  84.2500019  40.0800037  48.3800030  84.2600060  39.4400024
  46.6500044  85.3700066  39.5700026  46.7000008  85.2600002  38.4800029
  45.6400013  85.3500080  39.9900007  47.1900034  86.3000011  39.6800017
  47.9400015  84.6800041  41.5000010  48.9000034  85.3600025  41.6700029
  47.3900032  84.1100025  42.5500011  46.5900040  83.5100079  42.4500036
  47.8500032  84.5000076  43.9499998  47.9300022  85.5800056  44.0200043
  46.9600010  84.0000057  45.0300026  45.9500027  84.1400051  44.6800041
  47.0800018  84.6000004  45.9300041  47.0900011  82.4800014  45.2500010
  48.0800009  82.1200085  45.5000019  46.8300009  81.9700050  44.3200016
  46.1100006  82.1300030  46.3600016  46.5000010  82.4200058  47.4900007
  45.1100016  81.4500046  46.0200024  49.2600012  84.0100002  44.2400026
  49.9600029  84.5800018  45.0900030  49.7000027  82.9400063  43.5400009
  49.0000010  82.6300049  42.8800011  51.0800028  82.3900032  43.5600042
  51.2800026  82.0300007  44.5600033  50.9800005  81.2600040  42.5600004
  51.0700035  81.6300011  41.5400028  52.1000004  80.2300072  42.8100014
  53.0700016  80.6700039  42.6300001  52.1400023  79.8500061  43.8300037
  51.9600010  79.4300032  42.0800018  49.7400045  80.5700016  42.8100014
  49.2300034  80.3500080  42.0300007  52.1600008  83.2500076  43.0700016
  53.2800007  83.2000065  43.5800028  51.8400002  84.1000080  42.1000004
  50.8900023  84.1100025  41.7700005  52.8000021  84.9700069  41.4300013
  53.8100004  84.6700001  41.7200041  52.6900005  84.7200012  39.8900008
  53.5300016  85.1700020  39.3700027  51.8300009  85.2400017  39.4600010
  52.7000046  83.2400036  39.5800018  51.5400028  82.5900078  39.1300011
  50.6300020  83.1400013  38.9900017  51.5800047  81.2400055  38.7800026
  50.7000017  80.7100010  38.4400010  52.7300024  80.4800034  38.9500022
  52.7000046  79.4300032  38.7100029  53.9300013  81.1299992  39.2200017
  54.8600006  80.5900002  39.2600012  53.8900042  82.4700069  39.6700025
  54.7900009  82.9800034  39.9700022  52.7400017  86.5000057  41.7500019
  53.5700035  87.2900009  41.3300037  51.8000031  86.8200016  42.5699997
  51.2600040  86.0700035  42.9700041  51.6200018  88.0700016  43.3300018
  51.7500019  88.9400005  42.6700020  50.1700020  88.1000042  43.7800026
  49.8700047  87.1600056  44.2500019  49.8900032  89.1800022  44.8000002
  50.3600025  90.1500034  44.6200037  48.8100004  89.3100071  44.8500013
  50.2300024  88.8700008  45.7800007  49.3200016  88.1800079  42.6999998
  49.2500019  87.3000050  42.3000002  52.5000048  88.1200027  44.6300030
  52.5700045  87.1400070  45.3400040  53.1900024  89.2800045  44.9200010
  53.1100035  90.1600075  44.4600010  54.1900015  89.2100048  45.9500027
  53.9600039  88.4500027  46.6900015  55.5700016  88.8600063  45.3700018
  55.4500008  87.9100037  44.8400021  56.2600040  88.6900043  46.2000036
  56.1800003  89.9800014  44.4900036  55.8300018  89.9600029  43.1300020
  55.1200008  89.2400074  42.7500010  56.4100027  90.9500027  42.2900009
  56.1700010  90.9800053  41.2400007  57.3700047  91.8900013  42.7700043
  57.8100014  92.6100063  42.1099997  57.8000021  91.8200016  44.0700006
  58.4500027  92.5500011  44.5100021  57.2700024  90.8000088  44.9400043
  57.5700045  90.7299995  45.9700012  54.3200016  90.4500008  46.8600035
  53.9900017  91.5300083  46.3900042  54.7100019  90.3200054  48.1800032
  55.0000048  89.4000053  48.4900045  54.6400023  91.4000034  49.1700029
  54.7500038  92.4000072  48.7800026  53.2400036  91.3199997  49.8700047
  53.0600023  90.3900051  50.4000044  52.5100040  91.5600014  49.1000032
  52.9000044  92.3700047  50.9200001  53.2500029  93.7500000  50.9000015
  52.8900003  94.2000008  52.1300030  52.9700041  95.2100086  52.5100040
  52.3900032  93.2000065  52.9000044  52.1600008  93.3700085  53.8600016
  52.3300028  92.0800018  52.1700048  51.9200039  91.1400032  52.5000048
  55.7000017  91.2400055  50.3400040  56.5500021  90.3700066  50.3500032
  55.7400036  92.1500015  51.3500023  55.1200008  92.9300022  51.2100029
  56.6300011  92.1000004  52.5500011  57.6700020  92.0600033  52.2500038
  56.4100027  93.3600044  53.3600044  57.0500040  93.2900047  54.2300034
  56.6500044  94.2200089  52.7400017  55.4100037  93.3600044  53.7900019
  56.5600014  90.7800007  53.4000015  57.5000048  90.3999996  54.0800047
  55.4700041  90.0600052  53.2900047  54.7100019  90.4100037  52.7000046
  55.3100014  88.8199997  53.9800024  55.5500031  89.0300083  55.0200033
  53.8500023  88.2900047  54.0100002  53.2300043  88.9000034  54.6700048
  53.8500023  87.3700047  54.6000004  53.2000017  88.1400013  52.6600027
  52.0800018  87.5699997  52.6400042  53.8600016  88.2000065  51.6400003
  56.2400007  87.7200031  53.5000038  56.4300013  86.6800022  54.1800022
  57.0200014  87.9400063  52.4400043  56.7400026  88.7100029  51.8400002
  58.1400013  87.0700073  51.9700003  57.7800035  86.0500050  52.1300030
  58.3200026  87.1700001  50.4800034  57.3200035  87.3600006  50.0700045
  58.8300037  85.8300018  49.8600006  58.1300020  85.0500011  50.2000046
  58.8000011  85.7900047  48.7700033  59.8400021  85.6300068  50.1900005
  59.2900038  88.2800007  49.9500036  60.2900028  87.8999996  50.1300001
  59.1500044  89.2200089  50.4700041  59.0800047  88.5500050  48.4200001
  58.0500031  88.9000034  48.3000040  59.8000050  89.2200089  47.9500008
  59.2300034  87.6900005  47.7700043  59.3900013  87.3300076  52.7800035
  60.1700020  86.4300060  52.8700018  59.5600033  88.5800076  53.2800007
  58.8300037  89.2600060  53.1300020  60.6600046  88.9700031  54.1700029
  61.6000032  88.6500072  53.7400007  60.6300020  90.4500008  54.3200016
  61.5000010  90.8200073  54.8600006  59.7600031  90.8200073  54.8500013
  60.7000017  91.2800026  52.7200031  60.4800034  88.3200073  55.5200005
  61.5000010  88.0200005  56.1100006  59.2500019  88.1000042  56.0800028
  58.5000038  88.5500050  55.5900049  58.9500046  87.3700047  57.3100042
  59.7200012  87.5400066  58.0700016  57.7000046  87.9700089  58.0100012
  57.4100018  87.2700024  58.7900019  57.9200029  89.3600082  58.5100031
  56.8800020  89.6700001  58.5900021  58.4000015  89.3100071  59.5000029
  58.4500027  90.0300026  57.8400040  56.6200018  87.9600048  57.1400023
  55.7800007  87.8999996  57.6200008  58.8200045  85.8500004  57.1700048
  58.8600016  85.1300049  58.1700039  58.8400030  85.2800083  56.0000038
  58.7700033  85.9700012  55.2600050  58.9000034  83.8500023  55.6100035
  58.2000017  83.2400036  56.1700010  58.3800030  83.8199997  54.0700006
  59.1900015  84.0700054  53.3900023  57.7100039  84.6700001  53.8900042
  57.6600027  82.5300026  53.6300039  58.2600021  81.6400051  53.8400030
  56.2600040  82.2800064  54.3000031  55.6700039  83.1599998  54.0400028
  55.7500029  81.3899994  53.8900042  56.2200022  82.0000076  55.3500032
  57.4500036  82.5600052  52.0800018  56.9100046  81.7000008  51.6900015
  56.8700027  83.4600067  51.8600035  58.4300041  82.6100063  51.6200018
  60.3700018  83.2800007  55.7400036  61.4300013  83.7900066  55.2900028
  60.3800011  82.1000004  56.3700008  59.5200014  81.5900040  56.5300035
  61.5700006  81.3300037  56.6700029  62.3000050  81.9600010  57.2000027
  61.1900043  80.1900005  57.6200008  60.5900049  80.6200027  58.4200048
  62.0000029  79.6400023  58.0800009  60.4100037  79.2300034  56.9500017
  60.1000023  78.7200022  57.7100039  62.1700048  80.7299995  55.3900003
  61.4800024  80.5100060  54.3700027  63.5100031  80.5500031  55.2200031
  63.9800024  80.8400059  56.0700035  64.1900015  80.2000046  54.0100002
  63.9300013  81.0100079  53.3300018  65.7200050  80.1900005  54.2600012
  66.2000036  79.4800043  53.5900021  65.8500051  79.6200037  55.1900005
  66.4100027  81.5300083  54.1600037  67.4900055  81.5100002  54.3500042
  65.9300041  82.1800041  54.8900032  66.3600016  82.1300030  52.7300024
  66.7700052  83.3300018  52.6000023  65.7800055  81.5100002  51.7600012
  63.6300039  78.9100027  53.4000015  63.6400032  78.7800026  52.1200037
  63.1300020  77.9500055  54.2000008  63.2100010  78.0100060  55.2000046
  62.5300026  76.7000055  53.8400030  63.0600023  76.3600016  52.9400015
  62.6300049  75.6800032  54.9500036  62.1300030  75.9700060  55.8600044
  63.6800051  75.6100035  55.2500010  62.2100019  74.2400026  54.5500040
  62.1800041  74.0500021  53.4700012  61.1500025  74.0100050  54.6900034
  63.0900049  73.2200050  55.2600050  62.9900026  73.5500050  56.2900019
  64.0900040  73.3900023  54.8700047  62.4600029  71.8700027  55.2200031
  62.4000025  71.5000057  54.1900015  61.4400005  71.9900036  55.5700016
  63.2300043  70.9300041  55.9500027  62.7500010  70.0500011  56.0600042
  64.1000032  70.7700014  55.4800034  63.4300041  71.2000036  56.9000006
  61.1400032  76.8900013  53.2800007  60.7500029  76.2400055  52.3100042
  60.3800011  77.9000044  53.7800026  60.8300018  78.5900021  54.3600035
  59.0100050  78.1600046  53.2100010  58.5500050  77.2900057  52.7400017
  58.0400038  78.6900043  54.2800045  57.2700024  79.3300056  53.8700008
  58.6700010  79.3300056  54.8900032  57.3700047  77.5700045  55.0300026
  58.0900049  76.9700050  55.5800009  56.8600035  76.9200039  54.3200016
  56.2900019  78.0500031  55.9100008  55.1200008  78.1800032  55.4900026
  56.5600014  78.4200048  57.0700026  59.1900015  79.0900040  52.0000029
  58.2400036  78.9800024  51.2200022  60.3700018  79.7900057  51.7400026
  61.0000038  79.8200035  52.5200033  60.6800032  80.5000019  50.4200029
  59.7500038  80.9600067  50.0700045  61.7900038  81.5100002  50.6200027
  62.1900034  81.9000053  49.6900034  62.7200031  81.0200024  50.9000015
  61.4200020  82.6800060  51.6000032  61.1900043  82.2200012  52.5700045
  60.5900049  83.2200050  51.1700010  62.6700020  83.5599995  51.7700005
  62.9100037  83.8800049  50.7500029  63.3600044  82.8299999  52.1900034
  62.5000048  84.7000027  52.7300024  61.6000032  85.0500011  53.0300045
  63.5100031  85.4699993  53.1200027  64.8000050  85.2500057  52.8400040
  65.0900030  84.4200039  52.3700047  65.4900026  85.8700085  53.2300043
  63.2300043  86.4400005  53.8900042  62.3500013  86.4200020  54.3900013
  64.0500021  86.9700050  54.1500044  61.0800028  79.4100046  49.4100046
  60.6400013  79.5200014  48.2700014  61.8500042  78.3700037  49.7600031
  62.3400021  78.3800030  50.6300020  62.0700026  77.3000050  48.7900019
  62.5600052  77.6600027  47.8900003  63.0600023  76.3900042  49.3500042
  63.1200027  75.4900026  48.7500000  62.6800013  76.1800051  50.3500032
  64.4900036  77.0300055  49.2600012  64.6500015  77.9600048  49.7900009
  64.7200012  77.2800016  48.2300043  65.5600023  76.1400032  49.7700024
  65.4200029  74.9800014  49.8600006  66.5900040  76.7200041  50.2700043
  66.7900038  77.7200031  50.2900028  67.3200035  76.0500050  50.4400015
  60.7600021  76.5200043  48.4200001  60.5200052  76.3500023  47.2300005
  59.8500013  76.3100052  49.3400002  60.1500034  76.3600016  50.3000021
  58.5400009  75.7900047  49.0800047  58.7800026  74.9100018  48.4900045
  57.7600050  75.3500032  50.3400040  57.7100039  76.2200022  50.9800005
  56.2900019  74.8900032  50.0800037  55.7400036  74.8100042  51.0300016
  55.7600021  75.5900049  49.4300032  56.3400030  73.9600039  49.5300007
  58.4600019  74.1400051  51.0500002  59.5100021  74.4000053  51.1100006
  58.4500027  73.2000017  50.4900026  58.0700016  74.0900040  52.4700022
  57.0500040  73.7100029  52.5700045  58.7600040  73.3800030  52.9100037
  58.1200027  75.0600052  52.9800034  57.6800013  76.7800045  48.2600021
  57.0200014  76.4000034  47.3100042  57.8100014  78.0700016  48.6000013
  58.4000015  78.3300018  49.3700027  57.0900011  79.1300058  47.7800035
  56.0500050  78.8100052  47.6600027  57.3500013  80.5000019  48.4500027
  58.4100008  80.7299995  48.2900000  57.0800018  80.4400063  49.5000029
  56.5800047  81.5900040  47.7800035  55.5000019  81.4400005  47.6600027
  56.9700050  81.8800068  46.8100023  56.7300034  82.8000069  48.7200022
  57.8000021  83.0500031  48.7900019  56.4000034  82.5699997  49.7400045
  56.0100031  84.0000057  48.1900024  55.9800005  83.8899994  47.1100044
  56.4500046  84.9800014  48.4000015  54.6900034  84.0799999  48.7500000
  54.2200041  83.1800079  48.8600016  54.5800018  84.4099998  49.7000027
  54.0700006  84.7000027  48.2400036  57.5800037  79.1300058  46.3200045
  56.7600012  78.9800024  45.4300022  58.9100027  79.1300058  46.0700035
  59.5100021  79.4700050  46.8000031  59.6000051  78.9600039  44.7700024
  59.3300009  79.8000050  44.1300011  61.1900043  79.0100050  44.9700022
  61.7200041  78.7300014  44.0700006  61.4200020  78.2700014  45.7300043
  61.5800047  80.4300022  45.3400040  61.0100031  80.8600044  46.1700010
  61.3400030  81.0599995  44.4900036  63.0700016  80.5800056  45.6200027
  63.4400034  79.6600056  46.0800028  63.2400036  81.4800072  46.1900043
  63.9800024  80.6100082  44.4000006  63.6900043  81.3700008  43.6700010
  63.6400032  79.7100019  43.8800001  65.4500008  80.5600071  44.6300030
  65.9500027  80.5700016  43.7500000  65.8200026  81.2900066  45.2200031
  65.8000040  79.6900034  45.0000000  59.2000008  77.6800060  44.0799999
  58.7500048  77.8400040  42.9500008  59.2600012  76.5200043  44.6600008
  59.6300030  76.5500021  45.6000042  58.7500048  75.2800035  44.1700029
  59.2100048  75.1700020  43.1700039  59.2800045  74.0400028  45.0000000
  58.6900043  73.1800032  44.6700001  59.0600014  74.3000031  46.0400009
  60.7900047  73.9400053  44.8000002  61.2100029  74.9500036  44.8000002
  61.0100031  73.5100031  43.8300037  61.5300035  73.0900049  45.9100008
  61.0000038  72.9200029  46.9800043  62.6600027  72.4700022  45.7000017
  63.3400011  72.7200031  45.0000000  63.0800009  72.0200014  46.5000010
  57.2600031  75.2100039  43.9200020  56.8100023  74.6600056  42.8800011
  56.4200020  75.8100033  44.7500038  56.7400026  76.4000034  45.5100012
  54.9800014  75.8900023  44.5000029  54.6100044  74.8700047  44.3600035
  54.1700029  76.4800024  45.6400013  54.4700003  77.5000048  45.8500004
  52.6800013  76.3900042  45.4800034  52.1000004  76.8800020  46.2500000
  52.3000002  76.6900015  44.5100021  52.3100042  75.3600025  45.6100035
  54.3900013  75.6800032  46.8200016  55.3500032  75.6100035  46.8700027
  54.6700048  76.6700029  43.1900024  53.9200020  76.2800026  42.2900009
  55.4500008  77.7200031  42.9800034  56.1900043  77.9000044  43.6400032
  55.4100037  78.5900021  41.7900038  54.4000006  78.8000059  41.4700031
  55.8200026  80.0000000  42.1000004  55.4400015  80.7200050  41.3800001
  55.3600025  80.2000046  43.0600023  56.9000006  79.8900032  42.2399998
  56.0200024  77.8800058  40.5600023  55.4200029  78.0300045  39.4800019
  57.0600033  77.0500040  40.7200003  57.5200033  77.0800018  41.6200018
  57.5900030  76.1600018  39.6600008  57.9300022  76.8000031  38.8500023
  58.9200020  75.5500031  40.2600002  58.5600042  74.8400021  41.0100031
  59.5200014  76.3100052  40.7400036  59.8400021  74.7700024  39.2600012
  59.2800045  73.9800024  38.7600017  60.4200029  75.7500029  38.1800008
  61.2400007  75.3100014  37.6400018  59.6600008  76.0300016  37.4500012
  60.8300018  76.6800022  38.6000013  60.9900045  73.9300013  39.8900008
  61.6500044  74.6400023  40.4100037  60.6200027  73.1100035  40.4800034
  61.6100025  73.4700012  39.1200018  56.5600014  75.0700045  39.1400027
  56.2500048  75.0700045  37.9600024  55.8800030  74.2900038  40.0200033
  56.2100029  74.2300034  40.9700012  54.8600006  73.3400011  39.7100019
  55.3300047  72.7100039  38.9700007  54.5700026  72.5000048  40.9700012
  54.3100023  73.2000017  41.7600012  53.3600044  71.5400028  40.8100033
  53.5600042  70.5600023  40.3700018  53.1000042  71.3900042  41.8500042
  52.5300026  72.0400047  40.3100014  55.7900047  71.7300034  41.3700008
  56.4700031  72.5400019  41.6300011  55.6000042  71.1400032  42.2700024
  56.1500025  71.0500050  40.5900002  53.6300039  73.9500046  39.0300012
  53.1000042  73.3800030  38.1000018  53.3000040  75.1900053  39.3100023
  53.8400030  75.6900024  40.0000000  52.2100019  75.8800030  38.6500025
  51.3100004  75.2800035  38.5100007  51.8500042  77.1300030  39.6000028
  51.3800001  77.9100037  38.9800024  52.7100039  77.6300049  40.0100040
  51.0100031  76.7900038  40.7800007  50.8300018  77.6400042  41.4200020
  51.5700006  76.1200047  41.4300013  49.5500040  76.1600018  40.4500008
  48.9600039  76.7300034  39.4900012  49.0400028  75.2100039  41.0800028
  52.5900030  76.3000059  37.2400022  51.6600037  76.3000059  36.4100027
  53.8200045  76.5100050  36.9700027  54.5400047  76.3700056  37.6500010
  54.2500019  76.8600035  35.6200027  53.6600018  77.6500034  35.1500010
  55.5900049  77.5700045  35.6300020  55.9800005  77.7400017  34.6300006
  56.2500048  77.0300055  36.3100028  55.5600023  79.0700054  36.1900020
  54.7400045  79.2000055  36.9100022  56.9500017  79.3500042  36.8300009
  57.1700048  78.6400032  37.6200008  57.6000023  79.2100048  35.9700012
  57.1000004  80.3700066  37.2000027  55.3500032  80.1600075  35.0500011
  56.1200047  79.8400021  34.3400025  54.3600035  80.0500011  34.5900011
  55.5800009  81.1400032  35.4600024  54.1900015  75.6000042  34.6300006
  53.9600039  75.6600046  33.4300017  54.4100046  74.5000029  35.2000022
  54.6700048  74.6400023  36.1600018  54.4600010  73.1600046  34.5800018
  54.7500038  73.1700039  33.5300016  55.4000044  72.2200012  35.3100014
  55.0500011  72.1000051  36.3400006  55.4800034  70.8000040  34.7000027
  56.0400009  70.0700045  35.2900028  54.4700003  70.3800011  34.6300006
  55.9200048  70.8800030  33.7100005  56.8200016  72.8100014  35.3000021
  56.8200016  73.5300016  36.1300015  57.5300026  71.9900036  35.2500010
  57.0000029  73.4200048  34.4100022  53.0200005  72.6000023  34.5000005
  52.7200031  71.9800043  33.5000014  52.1100044  72.9600048  35.4200006
  52.3500013  73.3100033  36.3300014  50.6900024  72.5300026  35.3000021
  50.6400013  71.5400028  34.8200011  50.0000000  72.4400043  36.6900015
  48.9400005  72.4800014  36.4500022  50.2900028  73.3200026  37.2600007
  50.4100037  71.2100029  37.4400020  51.4900017  71.2400055  37.6500010
  50.0800037  70.3000021  36.9400024  49.8400021  71.0700035  38.8700008
  50.1200008  72.0200014  39.3300009  50.3300047  70.2500010  39.4100022
  48.3500004  70.8200026  38.9400029  48.2200003  69.8200035  38.5100007
  47.8600025  71.6300011  38.3900023  47.8400040  70.9900045  40.3299999
  48.0000019  71.8900013  40.7400036  46.8300009  70.8800030  40.3299999
  48.2100010  70.2600050  40.9200001  49.9600029  73.4600019  34.2500019
  48.9100027  73.0500031  33.7700009  50.4900026  74.6800041  33.9400005
  51.2500048  74.9600029  34.5300007  49.8900032  75.6200027  33.0000019
  48.8100004  75.6200027  32.8100014  50.3400040  77.1100044  33.4500027
  51.4300013  77.1200037  33.4100008  50.0900030  77.3000050  34.4900012
  49.7800016  78.2200050  32.6000023  48.5500002  78.2000017  32.0700026
  48.4600019  79.2300034  31.1900020  47.5700045  79.6100044  30.6900024
  49.5600033  79.9100018  31.2700009  49.6800041  80.8100033  30.8100009
  50.4900026  79.2600060  32.0800018  51.5300035  79.5100021  32.2100019
  50.5500031  75.3400040  31.6400003  49.7900009  75.3100014  30.6200004
  51.8700027  75.0500059  31.6200018  52.2300005  74.9200058  32.5600004
  52.5300026  74.6600056  30.3900003  51.7800045  74.2900038  29.6900010
  53.3500004  75.8400059  29.7700024  53.8500023  75.4600048  28.8800025
  54.0500021  76.2400055  30.5200005  52.4600029  76.9200039  29.2600012
  51.7900038  77.2700024  30.0400019  51.9400024  76.4200020  28.4400010
  53.2000017  78.1600046  28.7100005  54.0300035  77.9900026  28.0300021
  53.6400032  78.5600042  29.6100020  52.1200037  79.1500044  28.1000018
  51.4300013  79.5900059  28.8200021  51.3300037  78.7100029  27.4700022
  52.9300022  80.0699997  27.2700024  53.1400013  79.5900059  26.4100003
  52.4100018  80.9000015  27.0200014  53.7500048  80.3600025  27.7800012
  53.4100008  73.4300041  30.5900025  54.6400023  73.5500050  30.8500004
  52.8600025  72.2100019  30.4900026  51.4600039  71.8200016  30.4700017
  51.0900021  71.7100048  29.4400024  50.8300018  72.5300026  31.0100007
  51.4300013  70.4700041  31.1500025  50.6000042  69.8700047  30.7800007
  51.2900019  70.4000044  32.2200012  52.7800035  69.7700024  30.7200003
  52.7100039  69.3900013  29.7000003  53.0900002  69.0800047  31.5100026
  53.6700010  71.0200024  30.7400012  54.1000032  71.1900043  31.7300010
  54.9600029  70.8100033  29.8400021  55.7700014  69.9700022  30.1600003
  55.1700020  71.4700031  28.7100005  54.4000006  72.0000029  28.3200002
  56.3900042  71.3100052  27.9000020  56.5600014  70.2500010  27.7500010
  56.1300039  72.0100021  26.5800023  56.1400032  73.0900049  26.7500019
  55.1900005  71.6200018  26.1800003  57.2600031  71.6200018  25.6600022
  57.2000027  70.5500031  25.4600000  58.2000017  71.8900013  26.1500001
  57.1400023  72.4800014  24.4100022  57.2500038  73.5200024  24.7100019
  56.2800026  72.2600031  23.7900019  58.3800030  72.3400021  23.6300015
  58.4700012  71.2800026  23.3600020  59.2700005  72.4100018  24.2400002
  58.4000015  73.2400036  22.4800014  59.2800045  73.2700014  21.9700003
  57.7000046  73.0100012  21.7900014  58.0800009  74.1700029  22.7100015
  57.5800037  71.8100023  28.6200023  58.6100006  71.1200047  28.5700011
  57.4000025  72.8000021  29.5000005  56.4900017  73.2300043  29.6000004
  58.3300018  73.3000040  30.4100013  57.9800034  74.2700052  30.7700014
  58.3500051  72.3900032  31.6600013  58.6800051  71.3900042  31.3700008
  59.0000010  72.8300047  32.4200010  57.3700047  72.3700047  32.1500015
  59.7400045  73.5300016  29.7900009  60.7100010  72.9300022  30.1400018
  59.7900009  74.4400024  28.8200021  59.0300035  75.0900030  28.8900018
  61.0800028  74.8900032  28.2400012  61.6500044  74.0400028  27.8800011
  60.9400034  75.8600044  27.0500016  61.9300032  76.0500050  26.6300011
  60.0800037  75.3800058  25.9100008  60.2400017  75.9700060  24.9900007
  60.3000021  74.3200016  25.7800007  59.0400028  75.3300047  26.2100005
  60.4000044  77.0700026  27.4300003  59.9200010  77.4400043  26.6800022
  62.0000029  75.5200052  29.3100023  61.5800047  76.1000013  30.2900004
  63.2800007  75.6800032  28.9300013  63.6300039  75.0800037  28.2000017
  64.1600037  76.5700054  29.6600008  64.1100025  76.2500048  30.7000017
  65.6400013  76.4300013  29.2000008  65.9800053  75.4000044  29.1600013
  66.2900019  77.0500040  29.8200011  65.8400011  76.7400026  27.7100015
  65.3100014  77.6400042  27.4300003  65.3400040  75.9800053  27.1100020
  67.3300028  76.7800045  27.2900009  67.7700043  75.8000040  27.4600005
  67.8500032  77.5200033  27.9100013  67.5600052  77.1600056  25.8400011
  66.7900038  76.7300034  25.2000022  68.5200024  76.8400049  25.4200006
  67.4900055  78.6600018  25.5300021  67.3400021  78.7400055  24.5300007
  66.6900015  79.0700054  25.9900022  68.3300018  79.1300058  25.7900023
  63.6600018  78.0400038  29.7600007  63.8300037  78.7100029  30.7400012
  63.0300045  78.5900021  28.7500024  62.8400040  77.9800034  27.9700017
  62.3400021  79.8900032  28.7700009  63.0900049  80.6200027  29.0700006
  61.8500042  80.3299999  27.4100018  61.2600040  81.2400055  27.5100017
  61.1400032  79.6100044  27.0100021  62.9800034  80.7700062  26.4600015
  63.5100031  81.5900040  26.9400024  62.4300051  81.3300037  25.6900001
  64.0100050  79.7900057  25.9800005  63.6800051  78.6600018  25.5700016
  65.2000046  80.1399994  25.9800005  61.1600018  79.9600029  29.7500014
  60.9000015  81.0200024  30.2900004  60.2900028  78.9400053  29.7500014
  60.5500031  78.1100035  29.2300010  59.1400051  78.8800049  30.7100010
  58.5600042  79.8000050  30.6700015  58.2900047  77.7200031  30.2400017
  57.5200033  77.5000048  30.9700012  58.9500046  76.8600035  30.1400018
  57.5800037  78.0100060  28.9200020  58.2600021  78.5600042  28.2600021
  56.7700005  78.7300014  29.1000009  57.0300007  76.8100023  28.2300019
  57.2700024  75.6700039  28.5700011  56.2400007  77.0900059  27.2400022
  56.2400007  77.9700041  26.7800021  55.7900047  76.3000059  26.8000007
  59.5900011  78.6000061  32.2100019  59.1100025  79.2200041  33.1800008
  60.6000042  77.8000021  32.4000025  61.0000038  77.3900032  31.5600014
  61.2000036  77.5100040  33.7200022  60.4600048  77.2800016  34.4800019
  62.1300030  76.3200045  33.5400009  62.7700043  76.3100052  34.4200015
  62.7500010  76.5400028  32.6600027  61.3300037  75.0400019  33.3500028
  60.5700016  75.1500034  32.5700021  62.3000050  73.8800049  32.9800010
  62.9900026  74.1600037  32.1700025  62.8500032  73.5600042  33.8600016
  61.6200018  73.1200027  32.6000023  60.6200027  74.4700050  34.6200013
  59.7900009  75.1000023  34.9300027  60.1800013  73.5300016  34.2900014
  61.2700033  74.4000053  35.5000019  61.8900013  78.7400055  34.3100023
  62.0900011  78.7500048  35.5200028  62.3300028  79.7000027  33.4900022
  62.1100044  79.6000051  32.5100017  63.1000042  80.8400059  33.9700007
  63.5700035  80.6000042  34.9300027  64.2100048  81.2200069  33.0500007
  63.7200022  81.6200066  32.1700025  64.7700024  80.3000069  32.8600025
  65.3000021  82.2200012  33.4300017  64.8400021  83.1900024  33.6400008
  65.9400034  82.3799992  32.5600004  66.1400032  81.7300034  34.6300006
  66.2700033  80.6700039  34.4300008  65.4600048  81.8100071  35.4800010
  67.4300051  82.4200058  34.9200010  67.3100042  83.4899998  35.0700021
  68.1500053  82.2900009  34.1000009  68.0300045  81.9400024  36.1200023
  67.3400021  81.8800068  36.8700027  68.4100056  81.0100079  36.0800028
  68.7800026  82.4800014  36.5200019  62.1700048  82.0000076  34.3100023
  62.6700020  83.1100082  34.5800018  60.8400011  81.8800068  34.0000010
  60.4700041  80.9700012  33.7500024  59.9600029  82.8900051  33.8300014
  60.2700043  83.4000015  32.9100013  58.5500050  82.2600079  33.5200024
  57.9200029  83.1300068  33.3200026  58.6500025  81.8000031  32.5400019
  58.1400013  81.6800022  34.3500018  60.0300026  83.9600086  34.9600005
  60.2600050  85.1399994  34.7500014  59.7400045  83.4899998  36.2100029
  59.6200037  82.4900055  36.3100028  59.5300007  84.3400002  37.4000025
  60.0600052  85.2700043  37.1800017  58.0100012  84.6100044  37.5700021
  57.9600048  85.2300072  38.4600019  57.3900032  85.3400040  36.3600016
  57.1300030  84.5800018  35.6300020  56.4600039  85.6900024  36.7900014
  57.9300022  86.1900043  35.9100008  57.1700048  83.3700085  37.8700018
  57.2100019  82.7100086  37.0100021  57.6000023  82.9500008  38.7800026
  56.1400032  83.6300087  38.1000018  60.1700020  83.9700031  38.7400007
  60.3600025  84.8400021  39.5800018  60.6900024  82.7200031  38.8300014
  60.6100035  82.2600079  37.9400015  61.1600018  82.1800041  40.1300001
  60.3800011  82.4600029  40.8500004  61.2000036  80.6800079  40.0400019
  61.8200016  80.3800011  39.1900015  60.2000046  80.2600002  39.9000025
  61.8300009  80.0000000  41.3400030  61.1500025  80.3600025  42.1099997
  62.8200006  80.4100037  41.5200043  61.8900013  78.2100058  41.3500023
  63.3900023  77.9800034  40.3000021  63.1000042  78.5700035  39.4400024
  64.1000032  78.5100031  40.9400034  63.5100031  76.9100046  40.1000023
  62.4700022  82.7400017  40.7500029  62.4700022  83.0100060  41.9200039
  63.4100008  83.2200050  39.9300027  63.2400036  83.2000065  38.9400029
  64.6600008  83.9100075  40.4100037  64.9700022  83.5900021  41.4100027
  65.8400011  83.6100006  39.4800019  66.6900015  84.1499996  39.8800015
  65.5600023  83.9000034  38.4700012  66.2000036  82.1600056  39.3700027
  66.5200043  81.3800049  40.3000021  66.1800051  81.7400074  38.1800008
  64.4900036  85.3800011  40.4700041  65.0900030  86.0500050  41.3100004
  63.6700010  86.0100079  39.6000028  63.1800032  85.4800034  38.9000010
  63.2000017  87.3700047  39.8500013  63.9900017  88.1200027  39.8300028
  62.2400045  87.7800083  38.6100030  62.0400047  88.8300037  38.7900019
  61.3400030  87.1700001  38.6000013  62.9500008  87.7500057  37.2200012
  63.0900049  86.6100025  36.6900015  63.3200026  88.8300037  36.7200017
  62.3700047  87.4500084  41.1400032  62.4800014  88.4800053  41.8400002
  61.7300034  86.4200020  41.6100025  61.6400051  85.5400085  41.1199999
  61.1400032  86.4400005  42.9000044  60.4900026  87.3300076  42.8900003
  60.3400040  85.2000046  43.1300020  60.7100010  84.6700001  44.0100002
  60.5100012  84.4300079  42.3800039  58.8000011  85.4800034  43.2100010
  57.9800034  85.1900005  42.0700026  58.5000038  84.8900032  41.1700010
  56.6200018  85.1500034  42.2200012  56.0300016  84.7100067  41.4300013
  55.9600019  85.4699993  43.4100008  54.8800039  85.4300022  43.4600019
  56.7600012  85.7600021  44.5400000  56.3400030  86.0100079  45.5000019
  58.1200027  85.8600044  44.4400024  58.7100029  86.0400009  45.3200006
  62.1900034  86.5700054  44.0100002  62.0800018  87.3000050  45.0200033
  63.3100033  85.8800030  43.8500023  63.2900047  85.1900005  43.1200027
  64.5000029  85.9500027  44.7100019  64.1900015  85.8000088  45.7400036
  65.4100037  84.7200012  44.4600010  64.8800039  83.8300037  44.8000002
  65.8400011  84.7399998  43.4700012  66.2800026  84.8300076  45.1300001
  65.1900053  87.3200035  44.5900011  65.4500008  87.8999996  45.6599998
  65.3900051  87.9500008  43.4600019  65.1900053  87.5100040  42.5800037
  65.9300041  89.3000031  43.4400034  66.7900038  89.2900085  44.1100025
  66.5000010  89.5300007  42.0600033  66.9300032  90.5300045  41.9500017
  67.2000027  88.7100029  41.8900013  65.6400013  89.4099998  41.3900042
  65.0200033  90.4300022  44.1000032  65.5900049  91.4600086  44.6300030
  63.7300014  90.1900005  44.2300034  63.2700014  89.4799995  43.6700010
  62.8900051  91.0800076  45.0200033  63.1900024  92.0700073  44.6700001
  61.4100027  90.8500004  44.7100019  60.8600044  91.4400005  45.4400015
  61.0900021  89.8100090  44.8300028  61.0100031  91.5300083  43.4000015
  61.1700010  92.9300022  43.2500029  61.5700006  93.5200024  44.0600014
  60.8300018  93.5500050  42.0600033  60.7600021  94.6300030  42.0400000
  60.2900028  92.7600002  40.9899998  59.9600029  93.2500076  40.0900030
  60.1800013  91.3300037  41.0800028  59.8800039  90.7500076  40.2300024
  60.5600023  90.7600021  42.3200035  60.3800011  89.7100067  42.5200033
  63.2900047  91.0200024  46.5200043  63.4500027  92.0800018  47.1600008
  63.5300016  89.8200035  47.1200037  63.5200024  89.0300083  46.5000010
  64.0500021  89.6400070  48.5000038  63.2800007  89.9500084  49.2100000
  64.3100023  88.1200027  48.8300037  64.9800014  87.5800037  48.1700039
  64.8600054  87.9300022  50.3000021  65.8800030  88.3100033  50.3800011
  64.1800022  88.3700085  51.0300016  64.9400043  86.8800068  50.5900002
  63.0100012  87.3000050  48.7200022  63.0400038  86.4100075  49.3500042
  62.2300053  87.9800034  49.0600014  62.9000044  87.1400070  47.6500034
  65.3800011  90.3400040  48.6900043  65.6200027  90.9100056  49.7700024
  66.2900019  90.3100014  47.6700020  66.1700010  89.6300030  46.9300032
  67.5900030  90.9000015  47.6300001  68.1700039  90.6300068  48.5200024
  68.4100056  90.4700089  46.3600016  67.9400015  90.9400082  45.4900026
  68.2900047  89.3900013  46.1800003  69.8800039  90.8600044  46.3600016
  69.9100018  91.8700027  46.7700005  70.2200031  90.8500004  45.3100014
  70.7300043  89.9900055  47.3000002  70.4000044  89.9200058  48.4800005
  71.7900038  89.5500088  46.9200039  67.5200033  92.5000000  47.6500034
  68.2500029  93.2100010  48.3900023  66.6700029  93.0500031  46.8300009
  66.0900021  92.5000000  46.2000036  66.6200018  94.4700050  46.6900015
  67.6300049  94.8600006  46.8100023  66.2000036  94.8700047  45.3299999
  65.2300024  94.4099998  45.1900005  66.9300032  94.3800068  44.6900034
  66.2100029  96.3400078  45.1700020  67.2100019  96.6900063  45.4300022
  65.4800034  96.8400002  45.8100033  65.9900045  96.6000080  43.7100029
  65.0500011  96.1800003  43.3500004  66.7800045  96.1700058  43.1000042
  65.9300041  98.1700039  43.3900023  66.9100046  98.6500072  43.4500027
  65.1200008  98.6000061  44.0000010  65.5900049  98.4300041  41.9800043
  66.3900042  98.0700016  41.4700031  64.8500013  97.7900028  41.7500019
  65.5000019  99.4100094  41.7799997  65.7300043  95.1500034  47.8000021
  65.9800053  96.2000084  48.3400011  64.6200037  94.4800091  48.1000042
  64.4600010  93.5900021  47.6600027  63.4900045  95.1100063  48.8200045
  63.6500025  96.1800003  48.9600039  62.1900034  94.9900055  47.9600000
  61.4100027  95.4600048  48.5500002  62.0200014  93.9000034  47.9600000
  62.2600031  95.6700039  46.2900019  63.2700014  94.5900059  50.2900028
  62.7800035  95.3800011  51.0800028  63.6800051  93.3400059  50.6900024
  64.3500042  92.8600025  50.1000023  63.7100029  92.9600048  52.1300030
  62.7000046  93.2000065  52.4600029  63.7800026  91.5200043  52.3800039
  63.7900019  91.4400005  53.4700012  64.7400045  91.0600090  52.1100044
  62.4000025  90.5400085  51.7900038  64.6300030  93.8000011  52.9600048
  64.3700027  93.9600086  54.2100048  65.6300020  94.4900036  52.3800039
  65.8200026  94.3700027  51.4000034  66.4300013  95.5600071  52.9700041
  66.5200043  95.2500057  54.0100002  67.8200054  95.5600071  52.2300005
  68.2100010  94.5500088  52.1100044  68.4500027  96.0900021  52.9500008
  67.9700041  96.2300014  50.8400011  67.3300028  97.1000004  50.7000017
  67.6100016  95.6000042  50.0300026  69.3700027  96.7800045  50.4600000
  69.7600031  97.4700069  51.2100029  69.3800020  97.2700024  49.4900036
  70.4300022  95.6599998  50.4800034  70.5000019  95.1200008  51.4300013
  71.4000034  96.1800003  50.4400015  70.2600050  94.7700024  49.3200016
  69.3300056  94.4000053  49.2200041  70.4900026  95.2700043  48.4800005
  70.9300041  94.0100002  49.4000006  65.8800030  96.9800091  53.0100012
  66.5000010  97.9000092  53.4700012  64.6900034  97.1900082  52.4700022
  64.1500044  96.4200020  52.1000004  63.9700031  98.5200024  52.5600004
  64.2800045  99.0800095  53.4500027  64.4100046  99.3400002  51.3700008
  65.5100012  99.3200016  51.3800001  63.9700031  98.8900089  50.4900026
  64.1400051 100.3800011  51.5600014  62.4100018  98.4000015  52.7700043
  61.6700029  99.3300056  52.5100040  61.9700050  97.2000027  53.2100010
  62.6000023  96.4500046  53.4100008  60.5300045  96.7700005  53.2500029
  60.1200008  96.7600060  52.2400045  60.4600048  95.3400040  53.7700033
  60.9400034  94.5700073  53.1700039  59.4600010  94.9300003  53.9500046
  61.3000011  95.1300049  55.0700045  62.0400047  96.0000038  55.5900049
  61.2200022  94.0700054  55.7600021  59.6300030  97.7300072  54.0200043
  58.4000015  97.6500034  53.8700008  60.2200031  98.5700035  54.8200035
  61.2100029  98.5100079  54.9400043  59.5300007  99.5800018  55.7200003
  58.4800005  99.4700050  55.4400015  59.6200037  99.1500092  57.2100019
  59.0100050  98.2600021  57.3400021  59.2400026  99.9400043  57.8700018
  61.0600042  98.9200020  57.6800013  61.3800049  97.8100014  58.1400013
  61.8900013  99.8600006  57.5600004  60.0200033 101.0200024  55.3600025
  59.7100019 101.9200039  56.1100006  60.8300018 101.2700081  54.3700027
  61.0900021 100.4400063  53.8600016  61.4000034 102.5300026  53.8700008
  60.9700012 103.3800030  54.4000006  62.9200029 102.3600006  53.9400005
  63.3300018 103.3000088  53.5900021  63.1700039 101.5400028  53.2700014
  63.5300016 102.1100044  55.3100014  64.6100044 102.1400070  55.1300049
  63.2300043 101.1700058  55.7500029  63.2300043 103.2300091  56.2400007
  62.2100019 103.5600090  56.1200047  63.9200020 104.0100002  55.9100008
  63.4700012 102.8100014  57.7500010  63.9100027 103.7100029  58.1600046
  64.3300009 102.1500015  57.7600050  62.2600031 102.3400021  58.4700012
  61.9700050 101.4800072  58.0400038  62.4900007 102.1500015  59.4300032
  61.4800024 102.9400063  58.2800007  61.0700035 102.7900028  52.4100018
  61.3500023 103.9200020  51.9900036  60.5300045 101.8400002  51.6200018
  60.3500032 100.9500027  52.0800018  60.4200029 101.9300079  50.1600027
  60.2500010 102.9600048  49.8100042  61.7200041 101.4800072  49.5300007
  61.9500017 100.4500008  49.8400021  62.4800014 102.1400070  49.9500036
  61.9300032 101.6600037  48.0300045  61.2300014 101.0900021  47.4200010
  62.9200029 101.2900066  47.7500010  61.8400049 103.0600071  47.5300026
  62.7900028 103.6300087  47.0700026  60.7200050 103.7000084  47.7300024
  59.2900038 101.0400009  49.6600008  58.8600016 100.0900078  50.3100014
  58.7400007 101.3100052  48.4400034  59.1000032 102.1400070  47.9800034
  57.3400021 100.8400059  48.1200027  56.8200016 100.3700066  48.9600039
  56.5300035 102.0700073  47.8299999  55.7200003 101.6800022  47.2000027
  55.9700012 102.7900028  49.0200043  56.1300039 103.8800049  48.9300013
  54.9000025 102.6300049  49.0600014  56.3800049 102.4500084  49.9600029
  57.2600031 103.0400085  47.1000004  56.6100025 103.5900021  46.6600037
  57.2700024  99.8700047  46.9400024  56.2400007  99.7100067  46.2400007
  58.4400034  99.1400051  46.7700005  59.2400026  99.3800068  47.3300028
  58.7000036  98.0400085  45.9200001  58.9700031  98.4800053  44.9700022
  59.9400043  97.2900009  46.4600039  59.7600031  97.0000076  47.4900007
  60.8000040  97.9700089  46.5300035  60.4500008  95.8900070  45.5600023
  57.5700045  97.0300007  45.7700014  57.0300007  96.7800045  44.6900034
  57.0000029  96.5799999  46.8900013  57.3400021  96.9700050  47.7600002
  55.9400034  95.6100082  47.0600033  56.0100031  94.8900032  46.2200022
  56.1100006  94.9900055  48.3700037  55.2100039  94.4000053  48.5900021
  56.1200047  95.7700062  49.1300011  57.3100042  94.1200066  48.5800028
  57.7400017  93.1900024  47.6000023  57.1200037  93.0900002  46.7200041
  58.9100027  92.4200058  47.8200006  59.1800022  91.7200089  47.0400000
  59.6300030  92.5800037  48.9900017  60.4900026  91.9400024  49.1200018
  59.2300034  93.5900021  49.9200010  59.8500013  93.6600018  50.8000040
  58.0700016  94.2600060  49.7400045  57.8100014  94.9900055  50.4900026
  54.5700026  96.2800026  46.9300032  53.5300016  95.6200027  46.9500017
  54.4400024  97.5800037  46.9200039  55.2600050  98.1500053  47.0900011
  53.2200003  98.2500076  46.5400028  52.3400021  97.6300049  46.7200041
  53.1600046  99.4800091  47.4400043  52.2500038  99.9900055  47.1300030
  53.1800032  99.1600037  48.4900045  54.0200043 100.1100063  47.2100019
  53.1000042  98.6600018  45.1100016  52.0000029  98.8300037  44.5900011
  54.2700005  98.6700058  44.3700027  55.1300049  98.5500050  44.8699999
  54.3600035  99.1500092  42.9500008  53.4200048  99.6700001  42.7400017
  55.4700041 100.2100086  42.8700018  55.6300020 100.3600025  41.7900038
  56.4000034  99.9200058  43.3500004  55.0200033 101.5700054  43.4500027
  55.0200033 101.5900040  44.5400000  54.0100002 101.7100048  43.0500031
  55.9100008 102.6500034  42.9100037  55.4500008 103.7700081  42.7100039
  57.1400023 102.4800014  42.8900003  54.6600008  97.9500008  42.0200014
  53.9800024  97.9000092  41.0100031  55.6900024  97.1200085  42.2900009
  56.2100029  97.2200012  43.1500006  56.0100031  96.0300064  41.3900042
  55.7100010  96.4000034  40.4200029  57.5000048  95.7900047  41.3300037
  57.8900051  94.9600029  40.7600021  57.7400017  95.4500008  42.3400021
  58.5100031  96.8900013  40.9600019  59.5400047  96.5300083  41.0700035
  58.3700037  97.7100086  41.6600037  58.3800030  97.3000050  39.5800018
  59.0600014  96.7400074  38.6800027  57.6700020  98.2800007  39.3600011
  55.2100039  94.7100067  41.6000032  55.3300047  93.7900066  40.7600021
  54.4700003  94.5700073  42.6700020  54.4100046  95.4000092  43.2400036
  53.7700033  93.4000015  43.2200003  52.9900026  93.6600018  43.9300013
  54.5700026  92.7800083  43.6300039  53.0000019  92.5400066  42.1700001
  52.7700043  91.3500023  42.4700022  52.3900032  93.1000042  41.1100006
  52.5600004  94.1000080  41.0200024  51.6300011  92.3900032  40.0800037
  51.4400005  91.3800049  40.4300022  50.1900005  93.0600071  39.8500013
  49.6400023  92.4900055  39.1200018  50.3100014  94.1000080  39.5400023
  49.3900013  93.1000042  41.2500000  48.5400009  93.7200069  40.9400034
  50.0300026  93.6800003  41.9200039  48.9800024  91.7200089  41.8600035
  49.8700047  91.2800026  42.3000002  48.7100029  91.0800076  41.0200024
  47.8700018  91.7700005  42.9100037  47.0700026  92.4000072  42.5400019
  48.3400011  92.1400070  43.8200045  47.3300028  90.3999996  42.9600000
  46.4800024  90.3200054  43.4700012  47.2700024  90.0900078  41.9900036
  47.9100037  89.6600056  43.3400011  52.3600006  92.2800064  38.7500024
  51.9100046  91.6499996  37.8300023  53.6000013  92.7800083  38.6800027
  53.9100027  93.3200073  39.4600010  54.4100046  92.6700020  37.4900007
  53.7000036  92.9800034  36.7200017  55.6100035  93.7100029  37.5700021
  56.1200047  93.7200069  36.6100025  56.2600040  93.2500076  38.3300018
  55.3200006  95.2100086  37.9500008  56.2600040  95.7500076  37.8600025
  54.8500013  95.3000069  38.9200020  54.4100046  95.8300018  36.9000006
  54.0800047  96.7700005  37.3500013  53.5400009  95.2400017  36.6200018
  55.1800013  96.1400032  35.6200027  55.6300020  95.2300072  35.2500010
  55.8600044  96.9099998  35.9900022  54.3100023  96.6800022  34.6000028
  53.9700031  95.9300041  34.0300012  53.6600018  97.3700047  34.9800014
  54.9600029  97.0900059  33.9400005  54.8600006  91.2600040  37.1000028
  54.9700022  90.9700012  35.9400010  55.1900005  90.4100037  38.0700016
  55.2400017  90.8100033  38.9900017  55.4800034  89.0200043  37.8200006
  56.0200024  88.8800049  36.8800020  56.3900042  88.3700085  39.0000010
  56.6200018  87.3500061  38.6900020  55.7200003  88.4300041  39.8700023
  57.6700020  89.0400028  39.3000031  57.4500036  90.0600052  39.5900011
  58.5400009  89.0799999  38.0000019  58.7400007  88.0300045  37.7800012
  57.9900026  89.6700001  37.2600007  59.5400047  89.4500065  38.2400012
  58.5000038  88.3800030  40.4700041  58.6800051  87.3099995  40.3500032
  59.5200014  88.7400055  40.5500031  58.0200005  88.6000061  41.4300013
  54.2300034  88.1800079  37.5500011  54.3700027  87.1600056  36.8700027
  53.0400038  88.5700035  37.9800010  53.1100035  89.3400002  38.6300015
  51.7600012  87.8299999  37.6200008  51.8000031  86.7600060  37.7800012
  50.5100012  88.3700085  38.3000016  50.3300047  89.4200039  38.0600023
  49.2700005  87.5900078  37.8600025  49.3900013  86.5100002  37.8500009
  48.3700037  87.8700066  38.4100008  49.0500021  87.8999996  36.8300009
  50.5000019  88.2000065  39.8300028  50.6400013  87.1700001  40.1200008
  51.3900042  88.7600040  40.1500034  49.6400023  88.6800003  40.3000021
  51.5900040  87.9900074  36.1000013  51.4100027  86.9600010  35.3300023
  51.6900015  89.2200089  35.5300021  51.6700029  89.9400043  36.2500024
  51.5500021  89.5400047  34.1200018  50.5400038  89.3600082  33.7500024
  52.0000029  90.9899998  33.9800024  51.5100002  91.6000080  34.7300005
  53.0700016  91.1600018  34.1400027  51.7100048  91.3700008  33.0000019
  52.5100040  88.6200047  33.2900023  52.1400023  87.8800011  32.3700023
  53.7300014  88.5200024  33.7700009  53.9800024  89.0400028  34.6000028
  54.7100019  87.7100086  33.0900025  54.7900009  87.8600025  32.0200014
  56.0500050  88.0400085  33.7700009  55.9100008  87.8999996  34.8500013
  56.7800045  87.3300076  33.3800006  56.4600039  88.9900017  33.4300017
  54.5000029  86.1600018  33.1600022  55.0200033  85.4400063  32.2900009
  53.8000011  85.6200027  34.1600013  53.3900023  86.2600040  34.8300028
  53.5700035  84.1700077  34.3700027  54.3700027  83.7000084  33.8100004
  53.9500046  83.7600040  35.8300018  55.0000048  84.0300083  36.0000014
  53.8600016  82.6800060  35.9100008  53.1800032  84.3400002  36.8300009
  53.4800005  85.2500057  36.8400025  52.2100019  83.6500072  33.8800025
  52.1000004  82.5300026  33.4200025  51.1600018  84.5000076  33.7300014
  51.2300014  85.3299999  34.3100023  49.9700022  84.0700054  33.0400014
  49.7100019  83.1200027  33.5100007  48.7800026  85.0100040  33.1900024
  48.8600016  85.8900070  32.5500011  48.7300014  85.4900074  34.1700006
  47.4600029  84.3800068  32.9400015  47.3400021  83.5200024  33.6000013
  47.5300026  83.9000034  31.9600010  46.2000036  85.2900028  33.0100012
  45.4700041  85.3400040  34.0200019  45.8400011  85.9700012  31.9700027
  46.5000010  85.8900070  31.2000012  45.2200031  86.7700005  32.0200014
  50.2400017  83.7300014  31.5400004  49.4900036  82.9600048  30.9200025
  51.1800003  84.4300079  30.9400010  51.5200043  85.2300072  31.4500022
  51.6300011  84.3200016  29.5200014  50.7700014  84.0000057  28.9300013
  52.0500040  85.6800079  29.0100002  51.1900043  86.3400078  28.9000010
  52.7500010  86.1400032  29.7100019  52.4600029  85.4900074  28.0300021
  52.8000021  83.2900047  29.3900013  52.8800011  82.7100086  28.3300018
  53.6400032  83.0300045  30.4800010  53.3400011  83.6300087  31.2300014
  54.7000027  82.0100021  30.6300020  55.3800011  82.3400021  31.4200020
  53.9900017  80.7299995  30.9900022  53.6100006  80.9300041  32.0000005
  53.1500006  80.4600048  30.3500009  54.6900034  79.9200058  31.1800003
  55.5300045  81.9099998  29.3300009  55.2100039  81.0400009  28.4400010
  56.4000034  82.7700043  29.1100025  63.6100054  52.9100037  56.0000038
  68.6500025  53.5900021  56.4100027  66.4300013  53.9200020  59.5700026
  65.7000017  51.1700010  57.2200012  64.1800022  54.3600035  54.3400049
  63.0800009  54.5000029  58.9800024  70.4100037  52.4400043  55.6800032
  71.7600012  54.6500015  57.5800037  68.0000019  55.5600023  59.6300030
  66.8400049  51.6400003  55.2700043  64.3400049  55.3000021  57.3900032
  70.2400017  53.8100004  59.0700006  68.2100010  51.2600040  55.9000015
  63.2100010  55.2100039  56.4300013  64.2400026  51.8600035  55.3400040
  68.8200045  53.2700014  59.4200039  65.3400040  54.8700047  59.8200035
  69.3900013  54.7100019  56.8600035  65.5900049  51.4700031  56.0100031
  63.5600042  54.1300011  55.3500032  64.2100048  54.7800016  58.7200022
  69.2300034  52.4500036  55.9100008  70.6300020  54.3200016  57.8200006
  67.7000046  54.3900013  59.6300030  66.8900013  52.1600008  53.9100027
  65.6400013  55.8000040  56.8200016  71.2300014  53.8700008  60.2300024
  63.2100010  50.7000017  55.2800035  63.0300045  50.0700045  56.6900015
  61.8400049  51.2400007  54.7600031  62.7800035  56.5900040  55.7900047
  61.6900015  56.4600039  54.7500038  62.3900032  57.6200008  56.8600035
  61.1700010  57.3700047  57.7400017  68.8600016  49.9400043  55.4100037
  67.9200029  48.7600040  55.6900024  69.4100046  49.8600006  53.9700031
  70.5200052  48.8300037  53.7800026  64.8500013  54.6800041  61.2700033
  65.8000040  55.3400040  62.2800016  64.6200037  53.1600046  61.7000008
  69.9100018  55.5700016  55.6100035  68.9000034  55.6500006  54.4000006
  70.3500032  57.0100021  56.0200024  68.8000011  52.1200037  60.5100012
  67.8400040  50.9800005  60.1900005  68.6100054  52.6600027  61.9300032
  68.0100012  51.0700035  56.9600010  62.3100042  54.8200035  56.9000006
  64.4200039  52.1700048  54.3100023  68.3500051  52.7300024  58.5800028
  65.6500053  55.9200048  59.7700024  68.7800026  55.3800011  57.4600029
  66.7400026  53.2400036  53.9400005  66.0600042  51.7500019  53.3300018
  67.8100014  51.9100046  53.3700037  66.4000034  55.7200003  57.6000023
  65.4700041  56.8000031  56.4200020  65.9500027  55.1100016  56.0300016
  70.9500027  54.5500040  61.0500050  72.2100019  54.2200041  59.9000025
  71.4000034  52.9000044  60.7000017  63.5800028  49.9800014  54.5400047
  62.0800018  49.5200014  56.8100023  62.9900026  50.8200026  57.4900007
  63.8700008  49.3900013  56.8700027  62.0200014  51.6300011  53.7600040
  61.4300013  51.9800043  55.4700041  61.0400009  50.5100012  54.6600008
  63.6500025  57.0000029  55.2600050  61.4900017  57.4900007  54.4300032
  60.8600044  55.9300041  55.2200031  62.1000051  55.9000015  53.8900042
  62.2800016  58.6300039  56.4300013  63.2800007  57.7600050  57.4800014
  61.2500048  56.4200020  58.2900047  60.3000021  57.3200035  57.0800018
  61.1500025  58.1900024  58.4800005  69.7300053  49.8200035  56.0600042
  67.0200014  48.9200020  55.0700045  67.5700045  48.8300037  56.7200041
  68.5200024  47.8600025  55.5500031  69.8400021  50.8500004  53.7800026
  68.7200022  49.7600031  53.1300020  70.1700020  47.7900028  53.6600018
  71.1500025  48.8700008  54.6800041  71.0200024  49.0800047  52.8400040
  63.8800049  55.1600027  61.4200020  65.8900023  56.3900042  61.9800043
  66.7700052  54.8700047  62.4900007  65.3400040  55.4500008  63.2700014
  64.0000010  52.7100039  60.9100008  64.0900040  53.0600023  62.6500034
  65.4800034  52.5000048  61.8100023  70.7400036  54.9700022  55.2300024
  68.0400038  56.3000011  54.6000004  68.6500025  54.6100044  54.1600037
  69.4500017  56.1500025  53.5900021  70.9400034  57.3900032  55.1800013
  70.9600019  57.0200014  56.9400024  69.4300032  57.5900030  56.0900021
  69.7800016  51.6400003  60.4400015  67.7200031  50.2900028  61.0300016
  68.2200050  50.5200005  59.2700005  66.8400049  51.2800026  59.8600006
  68.9200020  53.6900043  62.1700048  69.1800022  52.0900011  62.6800013
  67.5600052  52.6700020  62.2100019
