%VERSION  VERSION_STAMP = V0001.000  DATE = 09/04/25  05:23:18                  
%FLAG TITLE                                                                     
%FORMAT(20a4)                                                                   
ENB1-Site2_1h.pdb                                                               
%FLAG POINTERS                                                                  
%FORMAT(10I8)                                                                   
     105       7      59      46     131      67     193     173       0       0
     588       1      46      67     173       9      21      40       7       0
       0       0       0       0       0       0       0       0     105       0
       0
%FLAG ATOM_NAME                                                                 
%FORMAT(20a4)                                                                   
O   O1  O2  O3  O4  O5  O6  O7  O8  N   N1  N2  C   C1  C2  C3  C4  C5  C6  C7  
C8  C9  C10 C11 C12 C13 C14 C15 C16 C17 C18 C19 C20 C21 C22 C23 C24 C25 C26 C27 
C28 C29 C30 C31 C32 C33 H   H1  H2  H3  H4  H5  H6  H7  H8  H9  H10 H11 H12 H13 
H14 H15 H16 H17 H18 H19 H20 H21 H22 H23 H24 H25 H26 H27 H28 H29 H30 H31 H32 H33 
H34 H35 H36 H37 H38 H39 H40 H41 H42 H43 H44 H45 H46 H47 H48 H49 H50 H51 H52 H53 
H54 H55 H56 H57 H58 
%FLAG CHARGE                                                                    
%FORMAT(5E16.8)                                                                 
 -7.46932077E+00 -7.65154377E+00 -8.12532357E+00 -1.04978670E+01 -1.02044880E+01
 -1.04978670E+01 -1.03885332E+01 -1.01133765E+01 -9.11115000E+00 -8.41505814E+00
 -8.50616964E+00 -8.39683584E+00  1.12431591E+00  1.21542741E+00  1.16076051E+00
  1.53249543E+00  1.60538463E+00  1.96983063E+00  1.20467625E+01  1.13178705E+01
  1.17369834E+01  1.17552057E+01  1.13543151E+01  1.12814259E+01  1.17169389E+00
  1.22636079E+00  1.11702699E+00 -9.96759810E-01 -1.74205188E+00 -1.74205188E+00
 -1.16076051E+00 -1.95160833E+00 -1.55618442E+00 -1.78760763E+00 -1.26098316E+00
 -1.86960798E+00 -1.86960798E+00 -1.27009431E+00 -1.69649613E+00 -1.69649613E+00
 -1.63454031E+00 -1.72382958E+00 -1.72382958E+00 -1.26098316E+00 -1.86960798E+00
 -1.86960798E+00  2.43632151E+00  2.22676506E+00  2.22676506E+00  1.74387411E+00
  1.54342881E+00  1.61631801E+00  9.11716336E-01  9.11716336E-01  9.11716336E-01
  9.42092910E-01  9.42092910E-01  9.42092910E-01  9.90691784E-01  9.90691784E-01
  9.90691784E-01  1.05142671E+00  8.11493686E-01  8.11493686E-01  8.11493686E-01
  8.11493686E-01  8.11493686E-01  8.11493686E-01  1.30653891E+00  7.90246484E-01
  7.90246484E-01  7.90246484E-01  9.23870610E-01  9.23870610E-01  7.17357284E-01
  7.17357284E-01  7.17357284E-01  1.09698246E+00  8.23647960E-01  8.23647960E-01
  8.23647960E-01  8.23647960E-01  8.23647960E-01  8.23647960E-01  1.34298351E+00
  8.08468784E-01  8.08468784E-01  8.08468784E-01  8.08468784E-01  8.08468784E-01
  8.08468784E-01  1.81676331E+00  7.35579584E-01  7.35579584E-01  7.35579584E-01
  7.35579584E-01  7.35579584E-01  7.35579584E-01  1.09698246E+00  8.23647960E-01
  8.23647960E-01  8.23647960E-01  8.23647960E-01  8.23647960E-01  8.23647960E-01
%FLAG ATOMIC_NUMBER                                                             
%FORMAT(10I8)                                                                   
       8       8       8       8       8       8       8       8       8       7
       7       7       6       6       6       6       6       6       6       6
       6       6       6       6       6       6       6       6       6       6
       6       6       6       6       6       6       6       6       6       6
       6       6       6       6       6       6       1       1       1       1
       1       1       1       1       1       1       1       1       1       1
       1       1       1       1       1       1       1       1       1       1
       1       1       1       1       1       1       1       1       1       1
       1       1       1       1       1       1       1       1       1       1
       1       1       1       1       1       1       1       1       1       1
       1       1       1       1       1
%FLAG MASS                                                                      
%FORMAT(5E16.8)                                                                 
  1.60000000E+01  1.60000000E+01  1.60000000E+01  1.60000000E+01  1.60000000E+01
  1.60000000E+01  1.60000000E+01  1.60000000E+01  1.60000000E+01  1.40100000E+01
  1.40100000E+01  1.40100000E+01  1.20100000E+01  1.20100000E+01  1.20100000E+01
  1.20100000E+01  1.20100000E+01  1.20100000E+01  1.20100000E+01  1.20100000E+01
  1.20100000E+01  1.20100000E+01  1.20100000E+01  1.20100000E+01  1.20100000E+01
  1.20100000E+01  1.20100000E+01  1.20100000E+01  1.20100000E+01  1.20100000E+01
  1.20100000E+01  1.20100000E+01  1.20100000E+01  1.20100000E+01  1.20100000E+01
  1.20100000E+01  1.20100000E+01  1.20100000E+01  1.20100000E+01  1.20100000E+01
  1.20100000E+01  1.20100000E+01  1.20100000E+01  1.20100000E+01  1.20100000E+01
  1.20100000E+01  1.00800000E+00  1.00800000E+00  1.00800000E+00  1.00800000E+00
  1.00800000E+00  1.00800000E+00  1.00800000E+00  1.00800000E+00  1.00800000E+00
  1.00800000E+00  1.00800000E+00  1.00800000E+00  1.00800000E+00  1.00800000E+00
  1.00800000E+00  1.00800000E+00  1.00800000E+00  1.00800000E+00  1.00800000E+00
  1.00800000E+00  1.00800000E+00  1.00800000E+00  1.00800000E+00  1.00800000E+00
  1.00800000E+00  1.00800000E+00  1.00800000E+00  1.00800000E+00  1.00800000E+00
  1.00800000E+00  1.00800000E+00  1.00800000E+00  1.00800000E+00  1.00800000E+00
  1.00800000E+00  1.00800000E+00  1.00800000E+00  1.00800000E+00  1.00800000E+00
  1.00800000E+00  1.00800000E+00  1.00800000E+00  1.00800000E+00  1.00800000E+00
  1.00800000E+00  1.00800000E+00  1.00800000E+00  1.00800000E+00  1.00800000E+00
  1.00800000E+00  1.00800000E+00  1.00800000E+00  1.00800000E+00  1.00800000E+00
  1.00800000E+00  1.00800000E+00  1.00800000E+00  1.00800000E+00  1.00800000E+00
%FLAG ATOM_TYPE_INDEX                                                           
%FORMAT(10I8)                                                                   
       1       1       1       2       2       2       2       2       2       3
       3       3       4       4       4       4       4       4       5       5
       5       5       5       5       4       4       4       4       4       4
       4       4       4       4       4       4       4       4       4       4
       4       4       4       4       4       4       6       6       6       6
       6       6       6       6       6       6       6       6       6       6
       6       7       7       7       7       7       7       7       7       7
       7       7       7       7       7       7       7       7       7       7
       7       7       7       7       7       7       7       7       7       7
       7       7       7       7       7       7       7       7       7       7
       7       7       7       7       7
%FLAG NUMBER_EXCLUDED_ATOMS                                                     
%FORMAT(10I8)                                                                   
      15      15      15       7       6       7       7       6       6      15
      15      15      19      19      19      14      14      14      13       9
      12      13       8       8       5       5       5      10       9       8
      13       9      11       6      10       9       8      10       9       8
      10       9       8      10       9       8       1       1       1       1
       1       1       2       1       1       2       1       1       2       1
       1       6       2       1       1       2       1       1       5       2
       1       1       4       3       2       1       1       6       2       1
       1       2       1       1       6       2       1       1       2       1
       1       6       2       1       1       2       1       1       6       2
       1       1       2       1       1
%FLAG NONBONDED_PARM_INDEX                                                      
%FORMAT(10I8)                                                                   
       1       2       4       7      11      16      22       2       3       5
       8      12      17      23       4       5       6       9      13      18
      24       7       8       9      10      14      19      25      11      12
      13      14      15      20      26      16      17      18      19      20
      21      27      22      23      24      25      26      27      28
%FLAG RESIDUE_LABEL                                                             
%FORMAT(20a4)                                                                   
UNL 
%FLAG RESIDUE_POINTER                                                           
%FORMAT(10I8)                                                                   
       1
%FLAG BOND_FORCE_CONSTANT                                                       
%FORMAT(5E16.8)                                                                 
  3.51310000E+02  2.82270000E+02  5.90600000E+02  2.54460000E+02  3.17460000E+02
  2.28890000E+02  2.34850000E+02  3.44220000E+02  3.45250000E+02
%FLAG BOND_EQUIL_VALUE                                                          
%FORMAT(5E16.8)                                                                 
  1.36210000E+00  1.42730000E+00  1.21900000E+00  1.46430000E+00  1.39670000E+00
  1.53540000E+00  1.52700000E+00  1.09690000E+00  1.09620000E+00
%FLAG ANGLE_FORCE_CONSTANT                                                      
%FORMAT(5E16.8)                                                                 
  1.01260000E+02  7.79700000E+01  7.74400000E+01  7.71000000E+01  5.62000000E+01
  8.66800000E+01  7.64500000E+01  4.80900000E+01  6.49500000E+01  6.53900000E+01
  6.51900000E+01  7.62100000E+01  7.72400000E+01  5.98700000E+01  4.32700000E+01
  8.94300000E+01  6.03600000E+01  4.37400000E+01  4.32800000E+01  3.56400000E+01
  3.58000000E+01
%FLAG ANGLE_EQUIL_VALUE                                                         
%FORMAT(5E16.8)                                                                 
  2.15024656E+00  1.93382564E+00  1.87832415E+00  1.90712209E+00  1.92579712E+00
  2.13925098E+00  2.14501057E+00  1.89822091E+00  1.96838317E+00  1.95372240E+00
  2.04482863E+00  2.03767278E+00  2.07397564E+00  1.96576518E+00  1.91427794E+00
  2.02144121E+00  1.94482122E+00  1.89141412E+00  1.91270715E+00  1.89455572E+00
  1.88024401E+00
%FLAG DIHEDRAL_FORCE_CONSTANT                                                   
%FORMAT(5E16.8)                                                                 
  0.00000000E+00  1.55555556E-01  2.50000000E-01  0.00000000E+00  0.00000000E+00
  1.07000000E+00  2.10000000E-01  2.50000000E+00  6.80000000E-01  2.00000000E-01
  4.40000000E-01  8.00000000E-01  8.00000000E-02  1.40000000E+00  2.70000000E+00
  1.00000000E-01  7.10000000E-01  0.00000000E+00  0.00000000E+00  2.93000000E+00
  1.41000000E+00  5.00000000E-01  1.30000000E-01  5.20000000E-01  1.89000000E+00
  3.29000000E+00  7.50000000E-01  2.26000000E+00  3.00000000E-02  6.50000000E-01
  6.40000000E-01  3.90000000E-01  3.83333333E-01  4.60000000E-01  4.00000000E-02
  8.00000000E-01  3.83000000E-01  1.20000000E-01  1.10000000E+00  1.05000000E+01
%FLAG DIHEDRAL_PERIODICITY                                                      
%FORMAT(5E16.8)                                                                 
  2.00000000E+00  3.00000000E+00  1.00000000E+00  3.00000000E+00  1.00000000E+00
  2.00000000E+00  3.00000000E+00  2.00000000E+00  1.00000000E+00  2.00000000E+00
  3.00000000E+00  1.00000000E+00  3.00000000E+00  1.00000000E+00  2.00000000E+00
  3.00000000E+00  2.00000000E+00  4.00000000E+00  2.00000000E+00  1.00000000E+00
  2.00000000E+00  3.00000000E+00  3.00000000E+00  3.00000000E+00  1.00000000E+00
  2.00000000E+00  3.00000000E+00  1.00000000E+00  3.00000000E+00  4.00000000E+00
  1.00000000E+00  2.00000000E+00  3.00000000E+00  1.00000000E+00  2.00000000E+00
  1.00000000E+00  3.00000000E+00  3.00000000E+00  2.00000000E+00  2.00000000E+00
%FLAG DIHEDRAL_PHASE                                                            
%FORMAT(5E16.8)                                                                 
  3.14159400E+00  0.00000000E+00  0.00000000E+00  0.00000000E+00  3.14159400E+00
  3.14159400E+00  3.14159400E+00  3.14159400E+00  0.00000000E+00  3.14159400E+00
  3.14159400E+00  0.00000000E+00  3.14159400E+00  3.14159400E+00  3.14159400E+00
  0.00000000E+00  3.14159400E+00  3.14159400E+00  0.00000000E+00  0.00000000E+00
  3.14159400E+00  0.00000000E+00  0.00000000E+00  0.00000000E+00  3.14159400E+00
  3.14159400E+00  0.00000000E+00  0.00000000E+00  3.14159400E+00  3.14159400E+00
  0.00000000E+00  3.14159400E+00  0.00000000E+00  3.14159400E+00  0.00000000E+00
  3.14159400E+00  0.00000000E+00  0.00000000E+00  3.14159400E+00  3.14159400E+00
%FLAG SCEE_SCALE_FACTOR                                                         
%FORMAT(5E16.8)                                                                 
  1.20000000E+00  1.20000000E+00  1.20000000E+00  1.20000000E+00  1.20000000E+00
  1.20000000E+00  1.20000000E+00  1.20000000E+00  1.20000000E+00  1.20000000E+00
  1.20000000E+00  1.20000000E+00  1.20000000E+00  1.20000000E+00  1.20000000E+00
  1.20000000E+00  1.20000000E+00  1.20000000E+00  1.20000000E+00  1.20000000E+00
  1.20000000E+00  1.20000000E+00  1.20000000E+00  1.20000000E+00  1.20000000E+00
  1.20000000E+00  1.20000000E+00  1.20000000E+00  1.20000000E+00  1.20000000E+00
  1.20000000E+00  1.20000000E+00  1.20000000E+00  1.20000000E+00  1.20000000E+00
  1.20000000E+00  1.20000000E+00  1.20000000E+00  0.00000000E+00  0.00000000E+00
%FLAG SCNB_SCALE_FACTOR                                                         
%FORMAT(5E16.8)                                                                 
  2.00000000E+00  2.00000000E+00  2.00000000E+00  2.00000000E+00  2.00000000E+00
  2.00000000E+00  2.00000000E+00  2.00000000E+00  2.00000000E+00  2.00000000E+00
  2.00000000E+00  2.00000000E+00  2.00000000E+00  2.00000000E+00  2.00000000E+00
  2.00000000E+00  2.00000000E+00  2.00000000E+00  2.00000000E+00  2.00000000E+00
  2.00000000E+00  2.00000000E+00  2.00000000E+00  2.00000000E+00  2.00000000E+00
  2.00000000E+00  2.00000000E+00  2.00000000E+00  2.00000000E+00  2.00000000E+00
  2.00000000E+00  2.00000000E+00  2.00000000E+00  2.00000000E+00  2.00000000E+00
  2.00000000E+00  2.00000000E+00  2.00000000E+00  0.00000000E+00  0.00000000E+00
%FLAG SOLTY                                                                     
%FORMAT(5E16.8)                                                                 
  0.00000000E+00  0.00000000E+00  0.00000000E+00  0.00000000E+00  0.00000000E+00
  0.00000000E+00  0.00000000E+00
%FLAG LENNARD_JONES_ACOEF                                                       
%FORMAT(5E16.8)                                                                 
  2.83662575E+05  3.27367585E+05  3.76435470E+05  4.46307018E+05  5.15491878E+05
  7.02078680E+05  5.42502534E+05  6.30925504E+05  8.52084164E+05  1.02073671E+06
  4.46121722E+05  5.17507491E+05  7.01106848E+05  8.43969952E+05  6.96551276E+05
  3.44374471E+04  3.86646725E+04  5.45183252E+04  6.97998263E+04  5.63013422E+04
  3.39005767E+03  5.02224902E+04  5.68021765E+04  7.93773615E+04  1.00235148E+05
  8.12662403E+04  5.22955465E+03  7.94617769E+03
%FLAG LENNARD_JONES_BCOEF                                                       
%FORMAT(5E16.8)                                                                 
  2.87011518E+02  3.67361018E+02  4.69350655E+02  4.41089616E+02  5.64804067E+02
  6.77820248E+02  4.38146883E+02  5.62969425E+02  6.72777963E+02  6.63431737E+02
  3.88758656E+02  4.98871431E+02  5.97113873E+02  5.90251928E+02  5.24668528E+02
  7.31636661E+01  9.23664132E+01  1.12788003E+02  1.14981426E+02  1.01040256E+02
  1.67944276E+01  8.83545880E+01  1.11953944E+02  1.36094315E+02  1.37787728E+02
  1.21392023E+02  2.08590256E+01  2.57122925E+01
%FLAG BONDS_INC_HYDROGEN                                                        
%FORMAT(10I8)                                                                   
      36     138       8      39     141       8      42     144       8      45
     147       8      48     150       8      51     153       8      72     156
       8      72     159       8      72     162       8      75     165       8
      75     168       8      75     171       8      78     174       8      78
     177       8      78     180       8      81     183       9      84     186
       9      84     189       9      84     192       9      87     195       9
      87     198       9      87     201       9      90     204       9      93
     207       9      93     210       9      93     213       9      96     216
       9      96     219       9      99     222       9      99     225       9
      99     228       9     102     231       9     105     234       9     105
     237       9     105     240       9     108     243       9     108     246
       9     108     249       9     111     252       9     114     255       9
     114     258       9     114     261       9     117     264       9     117
     267       9     117     270       9     120     273       9     123     276
       9     123     279       9     123     282       9     126     285       9
     126     288       9     126     291       9     129     294       9     132
     297       9     132     300       9     132     303       9     135     306
       9     135     309       9     135     312       9
%FLAG BONDS_WITHOUT_HYDROGEN                                                    
%FORMAT(10I8)                                                                   
       0      57       1       0      48       2       3      66       1       3
      45       2       6      51       2       6      69       1       9      54
       3      12      57       3      15      60       3      18      63       3
      21      66       3      24      69       3      27      72       4      27
      36       4      27      54       5      30      75       4      30      60
       5      30      39       4      33      78       4      33      42       4
      33      63       5      36      90       6      36      57       7      39
      69       7      39     102       6      42     129       6      42      66
       7      45      54       7      45     111       6      48      81       6
      48      60       7      51     120       6      51      63       7      81
      87       6      81      84       6      90      93       6      90      96
       6      96      99       6     102     105       6     102     108       6
     111     117       6     111     114       6     120     123       6     120
     126       6     129     135       6     129     132       6
%FLAG ANGLES_INC_HYDROGEN                                                       
%FORMAT(10I8)                                                                   
       0      48     150       5       3      45     147       5       6      51
     153       5      27      72     156       8      27      72     159       8
      27      72     162       8      27      36     138       8      30      75
     165       8      30      75     168       8      30      75     171       8
      30      39     141       8      33      78     174       8      33      78
     177       8      33      78     180       8      33      42     144       8
      36      90     204      15      39     102     231      15      42     129
     294      15      45     111     252      15      48      81     183      15
      51     120     273      15      54      45     147      18      57      36
     138      18      60      48     150      18      63      51     153      18
      66      42     144      18      69      39     141      18      81      48
     150      19      81      87     195      15      81      87     198      15
      81      87     201      15      81      84     186      15      81      84
     189      15      81      84     192      15      84      81     183      15
      87      81     183      15      90      36     138      19      90      93
     207      15      90      93     210      15      90      93     213      15
      90      96     216      15      90      96     219      15      93      90
     204      15      96      90     204      15      96      99     222      15
      96      99     225      15      96      99     228      15      99      96
     216      15      99      96     219      15     102      39     141      19
     102     105     234      15     102     105     237      15     102     105
     240      15     102     108     243      15     102     108     246      15
     102     108     249      15     105     102     231      15     108     102
     231      15     111      45     147      19     111     117     264      15
     111     117     267      15     111     117     270      15     111     114
     255      15     111     114     258      15     111     114     261      15
     114     111     252      15     117     111     252      15     120      51
     153      19     120     123     276      15     120     123     279      15
     120     123     282      15     120     126     285      15     120     126
     288      15     120     126     291      15     123     120     273      15
     126     120     273      15     129      42     144      19     129     135
     306      15     129     135     309      15     129     135     312      15
     129     132     297      15     129     132     300      15     129     132
     303      15     132     129     294      15     135     129     294      15
     156      72     159      20     156      72     162      20     159      72
     162      20     165      75     168      20     165      75     171      20
     168      75     171      20     174      78     177      20     174      78
     180      20     177      78     180      20     186      84     189      21
     186      84     192      21     189      84     192      21     195      87
     198      21     195      87     201      21     198      87     201      21
     207      93     210      21     207      93     213      21     210      93
     213      21     216      96     219      21     222      99     225      21
     222      99     228      21     225      99     228      21     234     105
     237      21     234     105     240      21     237     105     240      21
     243     108     246      21     243     108     249      21     246     108
     249      21     255     114     258      21     255     114     261      21
     258     114     261      21     264     117     267      21     264     117
     270      21     267     117     270      21     276     123     279      21
     276     123     282      21     279     123     282      21     285     126
     288      21     285     126     291      21     288     126     291      21
     297     132     300      21     297     132     303      21     300     132
     303      21     306     135     309      21     306     135     312      21
     309     135     312      21
%FLAG ANGLES_WITHOUT_HYDROGEN                                                   
%FORMAT(10I8)                                                                   
       0      57      12       1       0      57      36       2       0      48
      81       3       0      48      60       4       3      66      21       1
       3      66      42       2       3      45      54       4       3      45
     111       3       6      51     120       3       6      51      63       4
       6      69      24       1       6      69      39       2       9      54
      27       6       9      54      45       7      12      57      36       7
      15      60      30       6      15      60      48       7      18      63
      33       6      18      63      51       7      21      66      42       7
      24      69      39       7      27      36      90       9      27      36
      57      10      27      54      45      11      30      60      48      11
      30      39      69      10      30      39     102       9      33      42
     129       9      33      42      66      10      33      63      51      11
      36      27      72      12      36      27      54      13      36      90
      93      14      36      90      96      14      39      30      75      12
      39      30      60      13      39     102     105      14      39     102
     108      14      42      33      78      12      42      33      63      13
      42     129     135      14      42     129     132      14      45       3
      66      16      45     111     117      14      45     111     114      14
      48       0      57      16      48      81      87      14      48      81
      84      14      51       6      69      16      51     120     123      14
      51     120     126      14      54      27      72      13      54      45
     111      17      57      36      90      17      60      30      75      13
      60      48      81      17      63      33      78      13      63      51
     120      17      66      42     129      17      69      39     102      17
      84      81      87      14      90      96      99      14      93      90
      96      14     105     102     108      14     114     111     117      14
     123     120     126      14     132     129     135      14
%FLAG DIHEDRALS_INC_HYDROGEN                                                    
%FORMAT(10I8)                                                                   
       0      57      36     138       1       0      48      81     183       3
       0      48     -81     183       4       3      66      42     144       1
       3      45     111     252       3       3      45    -111     252       4
       6      51     120     273       3       6      51    -120     273       4
       6      69      39     141       1       9      54      45     147      12
       9      54     -45     147      13      12      57      36     138      12
      12      57     -36     138      13      15      60      48     150      12
      15      60     -48     150      13      18      63      51     153      12
      18      63     -51     153      13      21      66      42     144      12
      21      66     -42     144      13      24      69      39     141      12
      24      69     -39     141      13      27      36      90     204       2
      27      54      45     147       1      30      60      48     150       1
      30      39     102     231       2      33      42     129     294       2
      33      63      51     153       1      36      27      72     156      19
      36      27      72     159      19      36      27      72     162      19
      36      90      93     207      23      36      90      93     210      23
      36      90      93     213      23      36      90      96     216      23
      36      90      96     219      23      39      30      75     165      19
      39      30      75     168      19      39      30      75     171      19
      39     102     105     234      23      39     102     105     237      23
      39     102     105     240      23      39     102     108     243      23
      39     102     108     246      23      39     102     108     249      23
      42      33      78     174      19      42      33      78     177      19
      42      33      78     180      19      42     129     135     306      23
      42     129     135     309      23      42     129     135     312      23
      42     129     132     297      23      42     129     132     300      23
      42     129     132     303      23      45     111     117     264      23
      45     111     117     267      23      45     111     117     270      23
      45     111     114     255      23      45     111     114     258      23
      45     111     114     261      23      48      81      87     195      23
      48      81      87     198      23      48      81      87     201      23
      48      81      84     186      23      48      81      84     189      23
      48      81      84     192      23      51     120     123     276      23
      51     120     123     279      23      51     120     123     282      23
      51     120     126     285      23      51     120     126     288      23
      51     120     126     291      23      54      27      72     156       1
      54      27      72     159       1      54      27      72     162       1
      54      27      36     138       1      54      45     111     252       2
      57       0      48     150      33      57      36      90     204       2
      60      30      75     165       1      60      30      75     168       1
      60      30      75     171       1      60      30      39     141       1
      60      48      81     183       2      63      33      78     174       1
      63      33      78     177       1      63      33      78     180       1
      63      33      42     144       1      63      51     120     273       2
      66       3      45     147      33      66      42     129     294       2
      69       6      51     153      33      69      39     102     231       2
      72      27      36     138      19      75      30      39     141      19
      78      33      42     144      19      84      81      48     150       2
      84      81      87     195      23      84      81      87     198      23
      84      81      87     201      23      87      81      48     150       2
      87      81      84     186      23      87      81      84     189      23
      87      81      84     192      23      90      96      99     222      23
      90      96      99     225      23      90      96      99     228      23
      93      90      36     138       2      93      90      96     216      23
      93      90      96     219      23      96      90      36     138       2
      96      90      93     207      23      96      90      93     210      23
      96      90      93     213      23      99      96      90     204      23
     105     102      39     141       2     105     102     108     243      23
     105     102     108     246      23     105     102     108     249      23
     108     102      39     141       2     108     102     105     234      23
     108     102     105     237      23     108     102     105     240      23
     114     111      45     147       2     114     111     117     264      23
     114     111     117     267      23     114     111     117     270      23
     117     111      45     147       2     117     111     114     255      23
     117     111     114     258      23     117     111     114     261      23
     123     120      51     153       2     123     120     126     285      23
     123     120     126     288      23     123     120     126     291      23
     126     120      51     153       2     126     120     123     276      23
     126     120     123     279      23     126     120     123     282      23
     132     129      42     144       2     132     129     135     306      23
     132     129     135     309      23     132     129     135     312      23
     135     129      42     144       2     135     129     132     297      23
     135     129     132     300      23     135     129     132     303      23
     138      36      90     204       2     141      39     102     231       2
     144      42     129     294       2     147      45     111     252       2
     150      48      81     183       2     153      51     120     273       2
     183      81      87     195      38     183      81      87     198      38
     183      81      87     201      38     183      81      84     186      38
     183      81      84     189      38     183      81      84     192      38
     204      90      93     207      38     204      90      93     210      38
     204      90      93     213      38     204      90      96     216      38
     204      90      96     219      38     216      96      99     222      38
     216      96      99     225      38     216      96      99     228      38
     219      96      99     222      38     219      96      99     225      38
     219      96      99     228      38     231     102     105     234      38
     231     102     105     237      38     231     102     105     240      38
     231     102     108     243      38     231     102     108     246      38
     231     102     108     249      38     252     111     117     264      38
     252     111     117     267      38     252     111     117     270      38
     252     111     114     255      38     252     111     114     258      38
     252     111     114     261      38     273     120     123     276      38
     273     120     123     279      38     273     120     123     282      38
     273     120     126     285      38     273     120     126     288      38
     273     120     126     291      38     294     129     135     306      38
     294     129     135     309      38     294     129     135     312      38
     294     129     132     297      38     294     129     132     300      38
     294     129     132     303      38
%FLAG DIHEDRALS_WITHOUT_HYDROGEN                                                
%FORMAT(10I8)                                                                   
       0      57      36      27       1       0      57      36      90       1
       0      48      81      87       2       0      48      81      84       2
       0      48      60      15       5       0      48     -60      15       6
       0      48     -60      15       7       0      48      60      30       1
       3      66      42      33       1       3      66      42     129       1
       3      45      54       9       5       3      45     -54       9       6
       3      45     -54       9       7       3      45      54      27       1
       3      45     111     117       2       3      45     111     114       2
       6      51     120     123       2       6      51     120     126       2
       6      51      63      18       5       6      51     -63      18       6
       6      51     -63      18       7       6      51      63      33       1
       6      69      39      30       1       6      69      39     102       1
       9      54      27      72       8       9      54      27      36       8
       9      54      45     111       9       9      54     -45     111      10
       9      54     -45     111      11      48       0      57      12      14
      48       0     -57      12      15      12      57      36      27       1
      12      57      36      90       9      12      57     -36      90      10
      12      57     -36      90      11      15      60      30      75       8
      15      60      30      39       8      15      60      48      81       9
      15      60     -48      81      10      15      60     -48      81      11
      18      63      33      78       8      18      63      33      42       8
      18      63      51     120       9      18      63     -51     120      10
      18      63     -51     120      11      21      66       3      45      14
      21      66      -3      45      15      21      66      42      33       1
      21      66      42     129       9      21      66     -42     129      10
      21      66     -42     129      11      24      69       6      51      14
      24      69      -6      51      15      24      69      39      30       1
      24      69      39     102       9      24      69     -39     102      10
      24      69     -39     102      11      27      36      90      93      16
      27      36      90      96      16      27      54      45     111      17
      27      54     -45     111      18      30      60      48      81      17
      30      60     -48      81      18      30      39     102     105      16
      30      39     102     108      16      33      42     129     135      16
      33      42     129     132      16      33      63      51     120      17
      33      63     -51     120      18      36      27      54      45      20
      36      27     -54      45      21      36      27     -54      45      22
      36      90      96      99      24      48       0      57      36      25
      48       0     -57      36      26      48       0     -57      36      27
      39      30      60      48      20      39      30     -60      48      21
      39      30     -60      48      22      39      69       6      51      25
      39      69      -6      51      26      39      69      -6      51      27
      42      33      63      51      20      42      33     -63      51      21
      42      33     -63      51      22      42      66       3      45      25
      42      66      -3      45      26      42      66      -3      45      27
      45      54      27      72      20      45      54     -27      72      21
      45      54     -27      72      22      48      60      30      75      20
      48      60     -30      75      21      48      60     -30      75      22
      51      63      33      78      20      51      63     -33      78      21
      51      63     -33      78      22      54      27      36      90      28
      54      27     -36      90      29      54      27     -36      90      30
      54      27      36      57      31      54      27     -36      57      32
      54      45       3      66      33      54      45     111     117      34
      54      45    -111     117      35      54      45    -111     117       4
      54      45     111     114      34      54      45    -111     114      35
      54      45    -111     114       4      57       0      48      81      36
      57       0     -48      81      37      57       0      48      60      33
      57      36      27      72      19      57      36      90      93      34
      57      36     -90      93      35      57      36     -90      93       4
      57      36      90      96      34      57      36     -90      96      35
      57      36     -90      96       4      60      30      39      69      31
      60      30     -39      69      32      60      30      39     102      28
      60      30     -39     102      29      60      30     -39     102      30
      60      48      81      87      34      60      48     -81      87      35
      60      48     -81      87       4      60      48      81      84      34
      60      48     -81      84      35      60      48     -81      84       4
      63      33      42     129      28      63      33     -42     129      29
      63      33     -42     129      30      63      33      42      66      31
      63      33     -42      66      32      63      51       6      69      33
      63      51     120     123      34      63      51    -120     123      35
      63      51    -120     123       4      63      51     120     126      34
      63      51    -120     126      35      63      51    -120     126       4
      66       3      45     111      36      66       3     -45     111      37
      66      42      33      78      19      66      42     129     135      34
      66      42    -129     135      35      66      42    -129     135       4
      66      42     129     132      34      66      42    -129     132      35
      66      42    -129     132       4      69       6      51     120      36
      69       6     -51     120      37      69      39      30      75      19
      69      39     102     105      34      69      39    -102     105      35
      69      39    -102     105       4      69      39     102     108      34
      69      39    -102     108      35      69      39    -102     108       4
      72      27      36      90      19      75      30      39     102      19
      78      33      42     129      19      93      90      96      99      24
      54      36     -27     -72      39      60      39     -30     -75      39
      63      42     -33     -78      39      45      27     -54      -9      40
       0      57     -12     -36      39      48      30     -60     -15      40
      51      33     -63     -18      40      42      21     -66      -3      39
      39      24     -69      -6      39
%FLAG EXCLUDED_ATOMS_LIST                                                       
%FORMAT(10I8)                                                                   
       5       6      10      11      13      17      20      21      28      29
      30      31      47      51      62       4       8      10      12      15
      16      19      23      38      39      40      44      49      50      85
       7       9      11      12      14      18      22      24      35      41
      42      43      48      52      92      10      13      16      19      25
      38      50      10      13      17      20      31      47      11      14
      17      21      26      28      51      12      15      18      22      27
      41      52      12      15      16      23      44      49      11      14
      18      24      35      48      13      16      19      20      25      31
      32      33      38      47      50      53      54      55      69      14
      17      21      24      26      28      35      36      37      48      51
      56      57      58      78      15      18      22      23      27      41
      44      45      46      49      52      59      60      61      99      16
      17      19      20      25      31      32      33      34      47      53
      54      55      69      70      71      72      73      74      17      18
      21      24      26      35      36      37      48      56      57      58
      78      79      80      81      82      83      84      16      18      22
      23      27      44      45      46      49      59      60      61      99
     100     101     102     103     104     105      19      23      25      38
      39      40      50      85      86      87      88      89      90      91
      20      21      26      28      29      30      51      62      63      64
      65      66      67      68      22      24      27      41      42      43
      52      92      93      94      95      96      97      98      20      23
      25      31      38      39      40      47      50      53      54      55
      85      21      25      28      31      32      33      47      51      69
      24      26      28      29      30      35      48      51      56      57
      58      62      23      24      27      41      42      43      44      49
      52      59      60      61      92      27      38      44      45      46
      49      50      99      26      35      36      37      41      48      52
      78      31      47      53      54      55      35      48      56      57
      58      44      49      59      60      61      29      30      51      62
      63      64      65      66      67      68      30      51      62      63
      64      65      66      67      68      51      62      63      64      65
      66      67      68      32      33      34      47      69      70      71
      72      73      74      75      76      77      33      34      47      69
      70      71      72      73      74      34      47      69      70      71
      72      73      74      75      76      77      69      73      74      75
      76      77      36      37      48      78      79      80      81      82
      83      84      37      48      78      79      80      81      82      83
      84      48      78      79      80      81      82      83      84      39
      40      50      85      86      87      88      89      90      91      40
      50      85      86      87      88      89      90      91      50      85
      86      87      88      89      90      91      42      43      52      92
      93      94      95      96      97      98      43      52      92      93
      94      95      96      97      98      52      92      93      94      95
      96      97      98      45      46      49      99     100     101     102
     103     104     105      46      49      99     100     101     102     103
     104     105      49      99     100     101     102     103     104     105
      69      78      99      85      62      92      54      55      55       0
      57      58      58       0      60      61      61       0      63      64
      65      66      67      68      64      65      65       0      67      68
      68       0      70      71      72      73      74      71      72      72
       0      74      75      76      77      75      76      77      76      77
      77       0      79      80      81      82      83      84      80      81
      81       0      83      84      84       0      86      87      88      89
      90      91      87      88      88       0      90      91      91       0
      93      94      95      96      97      98      94      95      95       0
      97      98      98       0     100     101     102     103     104     105
     101     102     102       0     104     105     105       0
%FLAG HBOND_ACOEF                                                               
%FORMAT(5E16.8)                                                                 

%FLAG HBOND_BCOEF                                                               
%FORMAT(5E16.8)                                                                 

%FLAG HBCUT                                                                     
%FORMAT(5E16.8)                                                                 

%FLAG AMBER_ATOM_TYPE                                                           
%FORMAT(20a4)                                                                   
os  os  os  o   o   o   o   o   o   n   n   n   c3  c3  c3  c3  c3  c3  c   c   
c   c   c   c   c3  c3  c3  c3  c3  c3  c3  c3  c3  c3  c3  c3  c3  c3  c3  c3  
c3  c3  c3  c3  c3  c3  h1  h1  h1  h1  h1  h1  h1  h1  h1  h1  h1  h1  h1  h1  
h1  hc  hc  hc  hc  hc  hc  hc  hc  hc  hc  hc  hc  hc  hc  hc  hc  hc  hc  hc  
hc  hc  hc  hc  hc  hc  hc  hc  hc  hc  hc  hc  hc  hc  hc  hc  hc  hc  hc  hc  
hc  hc  hc  hc  hc  
%FLAG TREE_CHAIN_CLASSIFICATION                                                 
%FORMAT(20a4)                                                                   
BLA BLA BLA BLA BLA BLA BLA BLA BLA BLA BLA BLA BLA BLA BLA BLA BLA BLA BLA BLA 
BLA BLA BLA BLA BLA BLA BLA BLA BLA BLA BLA BLA BLA BLA BLA BLA BLA BLA BLA BLA 
BLA BLA BLA BLA BLA BLA BLA BLA BLA BLA BLA BLA BLA BLA BLA BLA BLA BLA BLA BLA 
BLA BLA BLA BLA BLA BLA BLA BLA BLA BLA BLA BLA BLA BLA BLA BLA BLA BLA BLA BLA 
BLA BLA BLA BLA BLA BLA BLA BLA BLA BLA BLA BLA BLA BLA BLA BLA BLA BLA BLA BLA 
BLA BLA BLA BLA BLA 
%FLAG JOIN_ARRAY                                                                
%FORMAT(10I8)                                                                   
       0       0       0       0       0       0       0       0       0       0
       0       0       0       0       0       0       0       0       0       0
       0       0       0       0       0       0       0       0       0       0
       0       0       0       0       0       0       0       0       0       0
       0       0       0       0       0       0       0       0       0       0
       0       0       0       0       0       0       0       0       0       0
       0       0       0       0       0       0       0       0       0       0
       0       0       0       0       0       0       0       0       0       0
       0       0       0       0       0       0       0       0       0       0
       0       0       0       0       0       0       0       0       0       0
       0       0       0       0       0
%FLAG IROTAT                                                                    
%FORMAT(10I8)                                                                   
       0       0       0       0       0       0       0       0       0       0
       0       0       0       0       0       0       0       0       0       0
       0       0       0       0       0       0       0       0       0       0
       0       0       0       0       0       0       0       0       0       0
       0       0       0       0       0       0       0       0       0       0
       0       0       0       0       0       0       0       0       0       0
       0       0       0       0       0       0       0       0       0       0
       0       0       0       0       0       0       0       0       0       0
       0       0       0       0       0       0       0       0       0       0
       0       0       0       0       0       0       0       0       0       0
       0       0       0       0       0
%FLAG RADIUS_SET                                                                
%FORMAT(1a80)                                                                   
modified Bondi radii (mbondi)                                                   
%FLAG RADII                                                                     
%FORMAT(5E16.8)                                                                 
  1.50000000E+00  1.50000000E+00  1.50000000E+00  1.50000000E+00  1.50000000E+00
  1.50000000E+00  1.50000000E+00  1.50000000E+00  1.50000000E+00  1.55000000E+00
  1.55000000E+00  1.55000000E+00  1.70000000E+00  1.70000000E+00  1.70000000E+00
  1.70000000E+00  1.70000000E+00  1.70000000E+00  1.70000000E+00  1.70000000E+00
  1.70000000E+00  1.70000000E+00  1.70000000E+00  1.70000000E+00  1.70000000E+00
  1.70000000E+00  1.70000000E+00  1.70000000E+00  1.70000000E+00  1.70000000E+00
  1.70000000E+00  1.70000000E+00  1.70000000E+00  1.70000000E+00  1.70000000E+00
  1.70000000E+00  1.70000000E+00  1.70000000E+00  1.70000000E+00  1.70000000E+00
  1.70000000E+00  1.70000000E+00  1.70000000E+00  1.70000000E+00  1.70000000E+00
  1.70000000E+00  1.30000000E+00  1.30000000E+00  1.30000000E+00  1.30000000E+00
  1.30000000E+00  1.30000000E+00  1.30000000E+00  1.30000000E+00  1.30000000E+00
  1.30000000E+00  1.30000000E+00  1.30000000E+00  1.30000000E+00  1.30000000E+00
  1.30000000E+00  1.30000000E+00  1.30000000E+00  1.30000000E+00  1.30000000E+00
  1.30000000E+00  1.30000000E+00  1.30000000E+00  1.30000000E+00  1.30000000E+00
  1.30000000E+00  1.30000000E+00  1.30000000E+00  1.30000000E+00  1.30000000E+00
  1.30000000E+00  1.30000000E+00  1.30000000E+00  1.30000000E+00  1.30000000E+00
  1.30000000E+00  1.30000000E+00  1.30000000E+00  1.30000000E+00  1.30000000E+00
  1.30000000E+00  1.30000000E+00  1.30000000E+00  1.30000000E+00  1.30000000E+00
  1.30000000E+00  1.30000000E+00  1.30000000E+00  1.30000000E+00  1.30000000E+00
  1.30000000E+00  1.30000000E+00  1.30000000E+00  1.30000000E+00  1.30000000E+00
  1.30000000E+00  1.30000000E+00  1.30000000E+00  1.30000000E+00  1.30000000E+00
%FLAG SCREEN                                                                    
%FORMAT(5E16.8)                                                                 
  8.50000000E-01  8.50000000E-01  8.50000000E-01  8.50000000E-01  8.50000000E-01
  8.50000000E-01  8.50000000E-01  8.50000000E-01  8.50000000E-01  7.90000000E-01
  7.90000000E-01  7.90000000E-01  7.20000000E-01  7.20000000E-01  7.20000000E-01
  7.20000000E-01  7.20000000E-01  7.20000000E-01  7.20000000E-01  7.20000000E-01
  7.20000000E-01  7.20000000E-01  7.20000000E-01  7.20000000E-01  7.20000000E-01
  7.20000000E-01  7.20000000E-01  7.20000000E-01  7.20000000E-01  7.20000000E-01
  7.20000000E-01  7.20000000E-01  7.20000000E-01  7.20000000E-01  7.20000000E-01
  7.20000000E-01  7.20000000E-01  7.20000000E-01  7.20000000E-01  7.20000000E-01
  7.20000000E-01  7.20000000E-01  7.20000000E-01  7.20000000E-01  7.20000000E-01
  7.20000000E-01  8.50000000E-01  8.50000000E-01  8.50000000E-01  8.50000000E-01
  8.50000000E-01  8.50000000E-01  8.50000000E-01  8.50000000E-01  8.50000000E-01
  8.50000000E-01  8.50000000E-01  8.50000000E-01  8.50000000E-01  8.50000000E-01
  8.50000000E-01  8.50000000E-01  8.50000000E-01  8.50000000E-01  8.50000000E-01
  8.50000000E-01  8.50000000E-01  8.50000000E-01  8.50000000E-01  8.50000000E-01
  8.50000000E-01  8.50000000E-01  8.50000000E-01  8.50000000E-01  8.50000000E-01
  8.50000000E-01  8.50000000E-01  8.50000000E-01  8.50000000E-01  8.50000000E-01
  8.50000000E-01  8.50000000E-01  8.50000000E-01  8.50000000E-01  8.50000000E-01
  8.50000000E-01  8.50000000E-01  8.50000000E-01  8.50000000E-01  8.50000000E-01
  8.50000000E-01  8.50000000E-01  8.50000000E-01  8.50000000E-01  8.50000000E-01
  8.50000000E-01  8.50000000E-01  8.50000000E-01  8.50000000E-01  8.50000000E-01
  8.50000000E-01  8.50000000E-01  8.50000000E-01  8.50000000E-01  8.50000000E-01
%FLAG IPOL                                                                      
%FORMAT(1I8)                                                                    
       0
