ENB1-Site2_1h.pdb
   105
   5.7090000   6.4350000 -24.3440000   9.0780000  10.4280000 -24.3180000
  10.8410000   6.0810000 -24.9020000   6.6990000   9.2310000 -22.5550000
   6.6950000   7.3930000 -26.1960000   7.8540000   6.5420000 -22.8940000
  12.7710000   8.6680000 -24.6000000   9.8910000  12.5280000 -24.7730000
  12.0980000   6.2760000 -22.9840000   6.1640000   9.7790000 -24.7450000
   8.9130000   4.6870000 -23.7820000  10.8710000   9.1530000 -25.8510000
   5.1730000   8.6860000 -24.8050000  10.0970000   4.9320000 -22.9300000
  11.0410000  10.6120000 -25.6950000   8.0040000  10.9810000 -23.5320000
   6.5510000   5.2660000 -24.4430000  11.7580000   6.8110000 -25.7370000
   6.9030000   9.9240000 -23.5570000   5.9470000   7.4480000 -25.2290000
   7.8240000   5.5600000 -23.6430000  11.8500000   8.2900000 -25.3310000
   9.9420000  11.3080000 -24.8960000  11.1220000   5.8510000 -23.5910000
   6.3360000  10.6140000 -25.9390000   8.9730000   3.5770000 -24.7360000
   9.7750000   8.6870000 -26.7020000   5.7790000   4.1130000 -23.8190000
   4.3430000   4.5310000 -23.5080000   5.7930000   2.8930000 -24.7400000
   3.9870000   8.9090000 -25.7360000   4.3720000   8.5330000 -27.1680000
   2.7670000   8.1170000 -25.2330000   2.6920000   8.0060000 -23.7160000
  10.7850000   3.6530000 -22.4510000  12.2890000   3.7220000 -22.7050000
  10.5040000   3.4120000 -20.9680000   8.5140000  11.2310000 -22.1150000
   8.5780000  12.7290000 -21.8210000   9.8840000  10.5870000 -21.9130000
  13.1250000   6.1320000 -25.8090000  13.9990000   6.7980000 -26.8690000
  12.9690000   4.6420000 -26.1000000  11.2340000  11.2970000 -27.0480000
  12.5260000  12.1100000 -27.0560000  10.0370000  12.1850000 -27.3730000
   4.7160000   8.6040000 -23.8410000   9.7000000   5.4280000 -22.0690000
  11.9300000  10.7170000 -25.1090000   7.6380000  11.9140000 -23.9070000
   6.8120000   5.0210000 -25.4510000  11.3620000   6.7970000 -26.7310000
   5.6530000  10.2950000 -26.6980000   7.3390000  10.5190000 -26.2990000
   6.1410000  11.6360000 -25.6900000   8.0520000   3.5220000 -25.2780000
   9.1310000   2.6600000 -24.2070000   9.7800000   3.7380000 -25.4200000
   9.1580000   9.5170000 -26.9760000   9.1890000   7.9680000 -26.1680000
  10.1760000   8.2350000 -27.5850000   6.2600000   3.8480000 -22.9010000
   3.8450000   4.8000000 -24.4160000   4.3520000   5.3700000 -22.8440000
   3.8260000   3.7160000 -23.0460000   5.3160000   3.1390000 -25.6650000
   5.2690000   2.0860000 -24.2720000   6.8050000   2.5990000 -24.9280000
   3.7160000   9.9440000 -25.7380000   4.6490000   7.5000000 -27.2030000
   5.1980000   9.1350000 -27.4850000   3.5380000   8.7010000 -27.8170000
   2.8130000   7.1290000 -25.6420000   1.8950000   8.6500000 -25.5510000
   3.5490000   7.4770000 -23.3540000   1.8040000   7.4770000 -23.4410000
   2.6710000   8.9860000 -23.2870000  10.3860000   2.8310000 -23.0080000
  12.7060000   4.5390000 -22.1550000  12.4680000   3.8670000 -23.7500000
  12.7470000   2.8080000 -22.3880000  10.8960000   4.2250000 -20.3940000
  10.9710000   2.5000000 -20.6600000   9.4480000   3.3420000 -20.8120000
   7.8260000  10.7820000 -21.4290000   9.2620000  13.1960000 -22.4980000
   8.9110000  12.8810000 -20.8160000   7.6060000  13.1580000 -21.9430000
  10.5870000  11.0240000 -22.5910000   9.8150000   9.5360000 -22.0990000
  10.2100000  10.7510000 -20.9070000  13.6060000   6.2410000 -24.8590000
  13.5340000   6.7000000 -27.8280000  14.9590000   6.3260000 -26.8880000
  14.1170000   7.8350000 -26.6340000  12.4890000   4.5120000 -27.0470000
  12.3750000   4.1890000 -25.3340000  13.9340000   4.1800000 -26.1230000
  11.3070000  10.5420000 -27.8030000  12.4730000  12.8720000 -26.3060000
  12.6560000  12.5630000 -28.0160000  13.3550000  11.4650000 -26.8510000
   9.9460000  12.9480000 -26.6280000   9.1460000  11.5920000 -27.3870000
  10.1790000  12.6380000 -28.3320000
