Cpptraj Generated Restart                                                       
  111  3.0000000E+04
  10.5000007  79.6400023  44.6200037  11.2000000  84.2000008  45.2300024
  14.0000010  81.0700035  43.5400009   8.7500006  81.0200024  47.1000004
  14.7000003  77.8500032  42.1099997  11.9200003  84.9100018  41.9700003
  11.6700006  77.7600050  44.3100023  12.3300004  84.9400043  47.1300030
  15.6700003  81.0900021  41.9600010  10.8600008  81.7600060  46.7100000
  12.6800001  78.9100027  41.8400002  13.5200012  83.8800049  43.1900024
  10.6100011  83.1000042  47.2700024  11.4400005  79.5200014  42.5699997
  13.9500010  82.9200077  42.0700026  10.1100004  79.3600035  46.0000038
  11.7500007  85.2500057  44.3400002  14.2500007  79.6100044  43.8300037
   9.8500007  80.7800007  46.6700029  13.9500010  78.7500048  42.5400019
  12.3700011  84.6600056  43.0800009  11.0900009  78.7700033  43.8600016
  11.4700007  84.2199993  46.5700006  14.7000003  81.6700077  42.5200033
  12.1700001  81.3600063  46.3000011  12.6400006  78.4700060  40.4200029
  14.4800007  84.0100002  44.3500042   8.8400006  78.4400034  46.1400032
   9.2200005  76.9500017  45.9700012   7.6900005  78.7400055  45.1600027
  10.1700008  79.8500061  41.6100025   9.4000006  78.5800028  41.2300014
   9.1500002  80.9300041  42.2200012   9.7900003  82.2000027  42.8299999
  10.6300008  83.1300068  48.8900042  12.0400012  82.7700043  49.3900013
  10.0200009  84.3800068  49.5100021   8.6100006  84.8500061  49.0300035
  15.6500006  79.4200039  44.5000029  15.8700013  80.3600025  45.7300043
  16.0700011  77.9900026  44.8100042  10.5700004  86.3199997  44.1200018
  10.4000008  87.5000000  45.1900005   9.2000002  85.7800007  43.6800003
  14.7000003  83.6600018  40.8500004  15.9900010  84.3500042  41.3400030
  14.9400008  82.7300072  39.5900011  15.2200007  83.5200024  38.2800007
   9.5800006  83.2700062  46.9300032  11.7400002  80.4800034  43.0000019
  13.0100012  82.6000023  41.6000032  10.9500003  78.9500046  46.5600014
  12.5400007  85.7400036  44.9300003  13.5400009  79.3400049  44.6200037
  12.9900002  82.0300007  46.5900040  12.1800005  81.0900021  45.2400017
  12.5200009  80.4400063  46.7900038  13.4900010  78.9500046  39.9100018
  11.6500008  78.6200047  39.9800014  12.7700007  77.3900032  40.3500032
  14.7900009  85.0300026  44.6300030  15.4800010  83.6500072  44.0400028
  14.1200006  83.3500004  45.1400042   8.4600002  78.5800028  47.1700001
   8.3900005  76.3100052  46.3000011  10.0600004  76.8000031  46.6600037
   9.4900006  76.5500021  44.9900007   7.9500002  78.5500050  44.1100025
   7.3300004  79.7800016  45.2500010   6.8500006  78.0900049  45.4000044
  10.5800009  80.3500080  40.7300043   8.7500006  78.7300014  40.3600025
   8.6700004  78.3900023  42.0200014  10.0400007  77.7000046  41.1199999
   8.5100001  80.3999996  42.9300022   8.4700006  81.2100029  41.4000034
   9.0200007  82.9699993  42.9600000  10.6400001  82.5500011  42.2300005
  10.1300001  81.9900036  43.8500023  10.0100005  82.2600079  49.1000032
  12.1000004  82.7400017  50.4800034  12.7600002  83.5500050  49.1100025
  12.3600006  81.8600082  48.8500023  10.7900000  85.1500034  49.4700003
   9.9600005  84.1900063  50.5900002   8.4900004  85.9300041  49.2000008
   7.7200001  84.3300056  49.4200039   8.4300005  84.7200012  47.9500008
  16.3700008  79.6800041  43.7200022  15.0600004  80.2500057  46.4600039
  15.7700002  81.4200020  45.4700041  16.8100011  80.2400017  46.2800026
  16.2000012  77.3900032  43.8900042  15.3900003  77.4100018  45.4500008
  17.0800006  78.1200027  45.1900005  10.7900000  86.8600082  43.2000017
  10.0200009  88.4600067  44.8400021  11.3900006  87.7500057  45.5800009
   9.7800004  87.1700001  46.0300016   8.5300004  86.6100025  43.4100008
   8.6700004  85.3500080  44.5200014   9.1700006  85.1100063  42.8100014
  14.0100002  84.4600010  40.5600023  16.7400002  83.6200047  41.6400003
  15.9000003  84.9600029  42.2300005  16.3700008  85.0800037  40.6100035
  14.0200007  82.1500015  39.3900013  15.6900012  81.9600010  39.7600007
  16.0900009  84.1800022  38.3900023  14.3700004  84.1700077  38.0700016
  15.3500009  82.8600025  37.4200010
