Cpptraj Generated Restart                                                       
 9232  3.0000000E+04
  41.1400032  38.5500026  83.9100075  41.0600042  37.9800010  83.0800056
  42.1300030  38.5900021  84.1400051  40.6000042  38.0700016  84.6200085
  40.7000017  39.9400020  83.5400009  39.6900010  39.8600030  83.1400013
  40.6599998  40.8700037  84.7500038  40.8400011  41.9099998  84.5100021
  41.4000034  40.6500006  85.5300045  39.3800020  40.8599997  85.2500057
  39.3300009  41.4600039  85.9800053  41.7100000  40.5299997  82.4900055
  42.6600027  41.1899996  82.9500008  41.5500021  40.4200029  81.1100006
  40.7900000  39.8600030  80.7400036  42.5600004  40.9000015  80.1100063
  43.4700012  40.3100014  80.1000023  41.9600010  40.6599998  78.7300014
  41.1400032  41.3500023  78.4800053  41.5600014  39.6500015  78.8400030
  43.0200005  40.7200003  77.5700045  43.7600040  41.4800024  77.7900028
  42.5400019  41.0100031  76.6500044  43.7700033  39.3900013  77.4200058
  43.1700039  38.5400009  76.7900038  44.8400021  39.2400026  77.9600048
  42.8600025  42.3400021  80.2900028  44.0000010  42.7700043  80.0800037
  41.9099998  43.2200003  80.6800079  41.0300016  42.7900028  80.9200001
  42.1400023  44.6600008  80.9600067  42.5600004  45.1700020  80.0900078
  40.8300018  45.3600025  81.2600040  40.4400015  45.0400019  82.2300053
  40.9400034  46.8200016  81.5000057  41.3400030  47.2100019  80.5600071
  40.0000000  47.1800041  81.9099998  41.7000008  47.0300007  82.2700024
  39.8300028  45.1800013  80.1399994  40.2500010  45.6100035  79.2300034
  39.7000027  44.1200018  79.9900055  38.8800025  45.6500006  80.4100037
  43.1300020  44.8200035  82.0900059  44.0100002  45.6700039  82.0499992
  43.0600023  44.0100002  83.1500053  42.4500036  43.2000017  83.0800056
  43.9600039  44.0100002  84.2900085  44.0900040  45.0500011  84.5900059
  43.3600044  43.1200027  85.4800034  43.4300041  42.0500040  85.2800083
  43.8900042  43.3700037  86.4000034  42.3500013  43.4100008  85.7500076
  45.3700018  43.5600042  83.8100052  46.3800001  44.0200043  84.2199993
  45.4900026  42.5600004  82.8999996  44.6800041  42.1800041  82.4100018
  46.7100000  42.1099997  82.2900009  47.4600029  41.7799997  83.0100060
  46.4600039  40.8000040  81.4700031  45.4600000  40.8000040  81.0300064
  46.3600016  40.0100040  82.2200012  47.4700022  40.3100014  80.5000019
  47.3200035  39.9100018  79.2100048  46.4000034  39.7900009  78.7900019
  48.5400009  39.7000027  78.6400032  48.7200022  39.4000030  77.6200056
  49.5100021  39.9700022  79.5800018  48.8000011  40.3200006  80.7400036
  49.3100023  40.6700039  81.6300011  47.4200010  43.1700039  81.5000057
  48.5600042  43.5600042  81.7900085  46.7300034  43.7900019  80.5600071
  45.7700014  43.5600042  80.3800011  47.3800039  44.8900032  79.8300028
  48.3600044  44.5500040  79.4900036  46.5100002  45.1700020  78.5700035
  46.7600012  46.1600018  78.1600046  45.4900026  45.2200031  78.9500046
  46.7200041  44.2600012  77.3600054  47.7000046  44.4400024  76.9200039
  46.0200024  44.5700026  76.5900040  46.5000010  42.7600002  77.6200056
  45.5500031  42.6200008  78.1400061  47.4000025  42.3900032  78.1200027
  46.2400007  42.0500040  76.3300037  45.3600025  42.0900011  75.8500051
  47.2000027  41.5100002  75.6100035  48.4900045  41.5799999  75.8500051
  48.7700033  42.2600031  76.5400028  49.2000008  41.1199999  75.3100014
  46.9099998  40.8300018  74.5400047  45.9400034  40.8100033  74.2400026
  47.6500034  40.6300020  73.8800049  47.6500034  46.1600018  80.6500053
  48.6100006  46.8200016  80.3299999  46.9300032  46.4000034  81.7199993
  46.0700035  45.8700037  81.7700005  47.2200012  47.4600029  82.6399994
  47.4200010  48.3000040  81.9700050  46.0300016  47.7500010  83.5700035
  45.8200026  46.8600035  84.1700077  45.0900030  47.8800011  83.0300045
  46.1500025  48.9800024  84.3200016  46.5000010  48.8300037  85.6900024
  46.5600014  47.8400040  86.1400032  46.8600035  50.0300026  86.4200020
  47.1300030  49.9700022  87.4600029  46.8700027  51.2500048  85.7400036
  47.2500038  52.1500015  86.2100029  46.6300011  51.4100027  84.3400002
  46.6800022  52.3500013  83.8100052  46.2100029  50.2700043  83.6000061
  46.0100031  50.4200029  82.5500011  48.5100031  47.1100044  83.4400082
  49.5100021  47.9100037  83.3600044  48.6500025  45.9800005  84.1499996
  47.8900003  45.3299999  84.0400028  49.8100042  45.5000019  84.8500061
  50.0800037  46.1700010  85.6800079  49.5100021  44.1900015  85.5900002
  50.4600000  43.6900043  85.8000088  49.1800022  43.4800005  84.8300076
  48.5500002  44.2200041  86.8900013  48.2500029  43.2100010  87.1700001
  47.6000023  44.6800041  86.6200066  49.2600012  44.8500013  88.1300068
  49.2700005  45.9400034  88.0200005  50.2800035  44.5000029  88.2100010
  48.4300041  44.4600010  89.3400002  48.3100033  43.3800030  89.3500042
  47.4300003  44.9000025  89.2100048  49.1000032  44.9600029  90.5800056
  49.4000006  45.9300041  90.5500031  48.5300016  44.8000002  91.4100075
  49.9300003  44.3900013  90.7200050  51.0300016  45.5100012  83.9800072
  52.0700026  46.1000013  84.4099998  51.0000038  44.9200010  82.7600002
  50.1300001  44.5000029  82.4500084  52.2100019  44.9200010  81.9000053
  53.0700016  44.5700026  82.4600029  52.2000027  43.8200045  80.8200073
  53.1800032  43.7800026  80.3500080  51.5000010  44.1000032  80.0300026
  51.8900013  42.3800039  81.3600063  51.3800001  42.2100019  82.4700069
  52.3200035  41.3900042  80.7400036  52.5700045  46.2400007  81.1700058
  53.7500048  46.4900017  80.9100056  51.5800047  47.1300030  80.8300018
  50.6200027  46.9000006  81.0100079  51.9800043  48.3500004  80.1900005
  52.8400040  48.2100010  79.5500040  50.8600044  48.8500023  79.2600060
  51.0300016  49.8700047  78.9100027  49.9100018  48.8900042  79.8100042
  50.6800032  47.9400015  78.0600023  50.3700018  47.0300007  78.5800028
  49.5600033  48.4300041  77.2200060  49.5500040  48.1400013  76.1600018
  48.6200047  48.0500031  77.6400042  49.4500017  49.5200014  77.1500015
  51.9500017  47.7400017  77.2900057  52.5700045  46.9900036  77.7600050
  51.7300034  47.6000023  76.2200022  52.5200033  48.6700010  77.3200035
  52.4800014  49.4800043  81.1700058  53.4600019  50.1900005  80.8900070
  51.7900038  49.6100044  82.2900009  50.9900045  49.0000010  82.4000072
  52.0900011  50.5000019  83.3400059  53.1700039  50.5500031  83.5400009
  51.6900015  50.0300026  84.2300034  51.4700031  51.9200039  83.0100060
  51.5000010  52.3700047  81.8700027  50.9700012  52.6000023  84.1000080
  50.9400034  52.1500015  85.0000000  49.9800014  53.6600018  83.9200020
  49.0400028  53.3200026  83.4600067  49.6200037  54.1400003  85.2800083
  50.4600000  54.5600033  85.8300018  49.3800020  53.2400036  85.8400059
  48.3800030  55.0400019  85.3100014  47.6300001  54.6400023  84.6300030
  48.7600040  56.0100031  84.9800014  47.7500010  55.2700043  86.7000008
  48.3500004  54.8800039  87.7300072  46.6900015  55.9200048  86.7100048
  50.4400015  54.8200035  82.9699993  49.7500038  55.2600050  82.0700073
  51.7600012  55.1300049  83.0600071  52.2400045  54.6900034  83.8199997
  52.3200035  56.2200022  82.3099995  51.6600037  57.0800018  82.4000072
  53.7200022  56.4600039  82.8999996  54.3500042  55.5700016  82.8299999
  53.5200024  56.5600014  83.9600086  54.4100046  57.7900028  82.5200081
  53.6700010  58.5900021  82.3700047  54.7800016  57.8300047  81.5000057
  55.5600023  58.2100010  83.4100056  55.4500008  59.3900013  83.8000011
  56.4100027  57.3700047  83.7800026  52.3900032  55.8600044  80.8300018
  52.0200014  56.6600037  79.9900055  52.6400042  54.6200037  80.4900074
  52.9300022  53.9700031  81.2200069  52.6000023  54.1900015  79.0600014
  53.0000019  55.0100040  78.4600019  53.4300041  52.8900003  78.8600016
  53.3500004  52.8300047  77.7700043  52.9400015  51.9900036  79.2500019
  54.8900032  52.9800034  79.3000031  55.6300020  53.7400007  78.6800051
  55.3200006  52.1700048  80.1700020  56.3000011  52.2300005  80.3600025
  54.6700048  51.4500046  80.4699993  51.1300039  54.0300035  78.5200024
  50.8000040  54.4600010  77.4200058  50.2400017  53.6800003  79.3600035
  50.5600023  53.3900023  80.2700043  48.8300037  53.3700037  79.0400028
  48.9200020  52.6800013  78.2000017  48.2900000  52.5300026  80.2000046
  48.1900024  53.1500006  81.0900021  49.0800047  51.8000031  80.3900051
  46.9800043  51.7600012  80.0200081  45.7400036  52.4200010  79.9400043
  45.6700039  53.5000038  79.9800014  44.5500040  51.6800022  79.8100042
  43.6300039  52.2500038  79.8200035  44.5500040  50.2900028  79.7600031
  43.6800003  49.6800041  79.5600033  45.7300043  49.6200037  79.7100019
  45.9000015  48.5600042  79.5700026  46.9800043  50.3700018  79.9200058
  47.9300022  49.8700047  79.9000025  48.0200005  54.6200037  78.7300014
  47.2500038  54.7200012  77.8100014  48.3100033  55.6900024  79.4700050
  48.9200020  55.5200005  80.2600002  47.9700041  57.0900011  79.0400028
  46.8800020  57.0300007  78.9400053  48.2600021  58.0800009  80.2400017
  47.9500008  59.0900040  79.9600029  49.3300009  58.0800009  80.4100037
  47.4500036  57.7600050  81.5799999  47.7500010  56.7200041  81.7800045
  46.3900042  57.8800011  81.3800049  47.9100037  58.6100006  82.7300072
  47.0500040  58.7500048  83.3900070  48.1500006  59.6200037  82.4200058
  49.1500044  58.0300045  83.4400082  50.0100040  58.1000042  82.7700043
  48.9400005  56.9800043  83.3500004  49.4900036  58.6100006  84.7700024
  48.6900043  58.6300039  85.3900051  50.2800035  58.1200027  85.1600075
  49.8400021  59.5400047  84.6500015  48.5200024  57.5000048  77.7100039
  47.7900028  58.0000019  76.8300056  49.7400045  57.1200037  77.4900055
  50.3500032  56.7800045  78.2200050  50.3600025  57.4800014  76.1800051
  50.1200008  58.5200024  75.9600019  51.8600035  57.3200035  76.3700056
  52.4900007  57.5300026  75.5100060  52.1000004  57.9800034  77.2100019
  52.0700026  56.2900019  76.6500044  49.6900034  56.7000008  75.0600052
  49.3100023  57.1900034  74.0000057  49.3400002  55.3900003  75.3200054
  49.5000029  54.9500036  76.2200022  48.7400007  54.5500040  74.2900038
  49.3100023  54.8300028  73.4000015  49.1600037  53.0300045  74.4400024
  48.5000038  52.4600029  73.8100052  48.8100004  52.9100037  75.4700041
  50.6800032  52.7000046  74.3200016  51.1600018  53.5700035  74.7800016
  50.9700012  51.4800024  75.1000023  50.7500029  51.6600037  76.1600018
  50.2700043  50.7000017  74.8400021  51.9800043  51.0900021  74.9500036
  51.2100029  52.5600004  72.9100037  50.7300043  53.3100033  72.2800016
  52.3000002  52.5100040  72.8600025  50.7800007  51.6100025  72.5600052
  47.3300028  54.9400043  74.0000057  46.9200039  54.9400043  72.8600025
  46.5400028  55.4600048  74.9600029  46.9300032  55.7400036  75.8500051
  45.1000023  55.7300043  74.6900034  44.5700026  55.0400019  74.0200043
  44.3000031  55.6100035  76.0000038  44.7500038  56.1800003  76.8100023
  42.8500032  56.1000013  75.7800055  42.3800039  55.7400036  74.8700047
  42.2700024  55.6800032  76.6100025  42.9300022  57.1900034  75.7200050
  44.2000008  54.1300011  76.5200043  45.1900005  53.6800003  76.5300035
  43.7600040  54.0400028  77.5000048  43.5500002  53.5100031  75.9000015
  45.0300026  57.1900034  74.0200043  44.1700029  57.4500036  73.1400013
  45.9700012  58.0800009  74.3500042  46.6200018  57.9600048  75.1100016
  46.0700035  59.4100046  73.7600040  45.0800037  59.8700047  73.8800049
  47.2000027  60.1700020  74.5600033  48.1300020  59.6100044  74.4700050
  46.8700027  60.0500011  75.5900049  47.5000000  61.6300011  74.0200043
  47.7700043  61.5500021  72.9700041  46.3000011  62.5600052  74.1400051
  45.5900002  62.4700022  73.3200026  45.9200001  62.4500036  75.1600027
  46.7200041  63.5500050  74.0500021  48.7100029  62.1900034  74.8000050
  49.0900040  63.1000042  74.3400049  48.4300041  62.3700047  75.8300018
  49.4800043  61.4200020  74.8200035  46.3000011  59.3800020  72.3000050
  45.5800009  59.9900007  71.5200043  47.2000027  58.4700012  71.9300032
  47.7700043  58.0900049  72.6800013  47.3600006  58.0100012  70.5200052
  47.6500034  58.8300037  69.8500013  48.4900045  56.9400024  70.3600025
  48.2200003  56.2600040  71.1600018  48.5200024  56.1000013  69.0600014
  49.3500042  55.4000044  68.9700031  47.6100016  55.5300045  68.8800049
  48.5700035  56.7600012  68.2000017  49.9500036  57.5500011  70.6100035
  49.8700047  58.2700014  71.4300013  50.2500010  58.0000019  69.6800041
  51.0600042  56.5800047  71.0200024  50.6400013  55.9400034  71.7900038
  51.3100004  55.8400011  70.2500010  51.9500017  57.1700048  71.2400055
  45.9600019  57.4400043  70.0000048  45.4900026  57.9800034  68.9800024
  45.4200029  56.3300037  70.6000042  45.9100008  55.9900045  71.4100027
  44.2500019  55.6600046  70.0700045  44.5100021  55.2400017  69.1100025
  43.8000011  54.5600033  71.1100054  42.9800034  53.9800024  70.6900024
  44.5300007  53.7800026  71.3300037  43.6900043  55.1100016  72.0500040
  43.0100012  56.5900040  69.7800016  42.5000000  56.5600014  68.6800051
  42.6999998  57.4300051  70.7000017  43.2700014  57.4900007  71.5500021
  41.6900015  58.5000038  70.4800034  40.7300043  58.1400013  70.0900030
  41.2600040  59.0700006  71.8400049  40.6900024  59.9800014  71.7200041
  42.1600008  59.3300009  72.4100018  40.4800034  58.1300020  72.6900053
  39.3200016  57.4700022  72.1700048  39.0700030  57.4000025  71.1200047
  38.6000013  56.6300011  73.0100012  37.6900029  56.2000036  72.6400042
  38.8500023  56.6400003  74.4500017  38.1300020  56.1200047  75.0700045
  39.9400020  57.4100018  74.9400043  40.0699997  57.4300051  76.0100031
  40.7800007  58.1400013  74.0600014  41.5200043  58.7400007  74.5700026
  41.9700003  59.6500015  69.4700050  41.0500002  59.8900032  68.6700010
  43.1800032  60.1500034  69.5400047  43.8900042  59.7800016  70.1700020
  43.6199999  61.0900021  68.4500027  42.8299999  61.8200016  68.2700014
  44.8000002  61.8400049  68.9900017  45.5900002  61.1000013  69.1500044
  45.0800037  62.5800037  68.2400036  44.4500017  62.3500013  69.8800039
  43.9200020  60.4700041  67.0700026  43.7900019  61.1300039  66.0500050
  44.0600014  59.1100025  66.9100046  44.1100025  58.5400009  67.7400017
  44.0799999  58.4200048  65.5700016  44.5700026  59.1300011  64.8800039
  44.9600029  57.1800041  65.6500053  44.6800041  56.4500046  64.8800039
  44.8000002  56.6600037  66.6000032  46.4700031  57.4900007  65.7500029
  46.6900015  57.9400015  66.7100048  46.6700029  58.2600021  65.0000048
  47.3500013  56.2600040  65.5900049  47.1000004  55.2000046  66.0800028
  48.5100031  56.4200020  64.9500036  48.6600018  57.2400045  64.3900013
  49.1700029  55.6500006  64.9800014  42.6900005  58.0900049  64.9500036
  42.6100016  58.0500031  63.7300014  41.6600037  57.9200029  65.7900047
  41.8600035  57.8600025  66.7700052  40.2900028  57.8900051  65.2700043
  40.3000021  57.3600006  64.3300009  39.4600010  56.8400049  66.1000013
  38.4100008  57.1200037  66.0300016  39.6200013  57.0500040  67.1600056
  39.6800017  55.3600025  65.8500051  38.6200023  54.5200014  65.3300047
  37.7200007  54.9800014  64.9500036  38.8100028  53.1400013  65.1100016
  38.0700016  52.5300026  64.6200037  39.9800014  52.5000048  65.6000042
  40.1600027  51.1800003  65.6500053  39.3500018  50.6800032  65.4900026
  41.0800028  53.2900047  66.0600042  42.0500040  52.8700018  66.2700033
  40.9000015  54.7100019  66.2300014  41.7300034  55.3300047  66.5100050
  39.6200013  59.2600012  65.2300024  38.8900018  59.5400047  64.2700052
  39.8000026  60.1100016  66.3100052  40.5000019  59.9400043  67.0200014
  39.1200018  61.3200045  66.4900017  38.2300019  61.3500023  65.8700037
  38.6500025  61.4300013  67.9600048  37.9400015  62.2500038  67.9200029
  39.5300007  61.6800022  68.5400009  38.0200028  60.2700043  68.6300039
  38.6500025  59.4000006  68.7800026  37.7000022  60.8000040  70.0300026
  38.6400008  61.1700010  70.4200029  36.9400024  61.5800047  70.0200033
  37.4100018  59.9200010  70.6200027  36.7100024  59.9600029  67.9400015
  36.1000013  60.8600044  67.7700043  36.9100022  59.5000029  66.9700050
  36.1000013  59.3000031  68.5600042  40.0200033  62.5500011  66.1300039
  40.5000019  63.2700014  66.9800043  40.3100014  62.6000023  64.8400021
  39.8000026  61.9900036  64.2200041  41.3199997  63.4600019  64.2300034
  42.2500038  63.2400036  64.7600031  41.5200043  63.1000042  62.7300024
  42.2399998  63.7600040  62.2400045  40.5700016  63.2900047  62.2200012
  41.9400024  61.6200018  62.5600052  41.2500000  60.9600019  63.0900049
  42.8900003  61.4700031  63.0600023  42.0200014  61.3200045  61.0500050
  41.0500002  60.9900045  60.3800011  43.2900000  61.2600040  60.6500006
  44.0500021  61.6000032  61.2400007  43.4300041  61.2300014  59.6500015
  41.0100031  64.9800014  64.4300032  41.9200039  65.8200026  64.4400024
  39.7600007  65.4000044  64.5900011  39.0200019  64.7200012  64.6900034
  39.3600011  66.8300009  64.8400021  40.1400042  67.5300026  64.5300007
  38.1900024  67.0900011  63.8900042  37.6000023  67.9700041  64.1000032
  37.4800014  66.2700033  64.0200043  38.5700011  67.0700026  62.3800039
  37.5900006  67.1300030  61.9100046  39.0200019  66.0900021  62.1700048
  39.5500016  68.2300043  61.8700027  40.2200031  68.9600039  62.6200008
  39.7900009  68.2400036  60.5900049  39.5700026  67.3900032  60.1000023
  40.5700016  68.7700033  60.2500010  39.0100026  67.2000027  66.3000011
  38.7500024  68.3700037  66.6100025  38.9700007  66.2300014  67.1900034
  39.1700029  65.3000021  66.8700027  38.8900018  66.5400028  68.6700010
  38.0300021  67.1900034  68.8600016  38.6600018  65.2300024  69.4500017
  39.0600014  65.3200054  70.4600048  39.0700030  64.3400049  68.9600039
  36.8800020  65.0000048  69.4900036  36.5400028  65.4100037  68.2700014
  40.1999998  67.2600031  69.1300011  41.2800026  66.8800020  68.6700010
  40.1000023  68.2200050  70.0100040  38.8900018  68.7700033  70.5800056
  38.2600021  67.9800034  70.9900045  38.3800030  69.3000031  69.7700024
  39.3100023  69.8100042  71.6000032  39.4000030  69.4000053  72.6100016
  38.5900021  70.6300020  71.6300011  40.7400036  70.1700020  71.1900043
  41.3800001  70.5600023  71.9800043  40.6000042  70.9200048  70.4000044
  41.2700033  68.8100052  70.6200027  41.9099998  69.0400028  69.7700024
  41.9099998  67.9600048  71.7200041  41.3100004  67.1400023  72.3700047
  43.1700039  68.2900047  72.0800018  43.5500002  69.1000032  71.6200018
  44.0200043  67.6200008  73.0700016  44.2700005  66.6100025  72.7600050
  45.3100014  68.4200048  73.1800032  45.0800037  69.4400024  73.5000038
  45.8000040  68.5900021  72.2300053  46.3200045  67.9600048  74.2200041
  47.1000004  66.7800045  74.0300035  46.9300032  66.2300014  73.1100035
  47.9400015  66.2800026  75.0400019  48.3700037  65.2900028  75.0100040
  48.1900024  67.1400023  76.1300039  48.9400005  66.8400049  76.8500042
  47.6000023  68.3500051  76.2600040  47.7200031  68.8900042  77.1900034
  46.6100025  68.7300014  75.3400040  45.9400034  69.5500040  75.5700016
  43.3200026  67.5300026  74.4600058  43.2300043  66.5600014  75.1800013
  42.7700043  68.6600018  74.8400021  42.8500032  69.3800020  74.1400051
  41.9500017  68.9200020  76.0300016  42.5000000  68.8100052  76.9600058
  41.5300035  70.3600025  75.9700060  40.7600021  70.5400038  75.2200031
  42.4500036  70.9100056  75.7700014  40.8000040  70.7800055  77.2800016
  41.4800024  70.7300043  78.1200027  39.9900007  70.0600052  77.4200058
  40.2200031  72.1800041  77.1600056  40.8800030  73.1200027  77.7300024
  39.0700030  72.3200035  76.6900015  40.7200003  67.9700041  76.1000013
  40.4500008  67.5100040  77.2400045  40.1600027  67.6100016  75.0100040
  40.6700039  67.7300024  74.1500044  38.9900017  66.6400051  74.9200058
  38.4400010  66.8300009  75.8400059  37.9900026  66.9400024  73.7600040
  38.3600020  66.5700054  72.8100014  37.7800012  68.0100012  73.8000011
  36.5900016  66.2900019  73.9300013  35.6700015  66.7000055  73.1400013
  36.2600017  65.3900051  74.7300053  39.4800019  65.2100039  74.9300051
  38.9000010  64.3700027  75.5800056  40.6599998  64.9900007  74.3900013
  40.9899998  65.6500053  73.7000036  41.2600040  63.6700010  74.4000053
  40.6000042  62.8800011  74.0800047  42.5200033  63.5200024  73.4300041
  43.0600023  62.5800037  73.5700035  43.2700014  64.2400026  73.7400055
  42.2600031  63.6900043  71.9800043  41.3199997  62.9200029  71.2900019
  41.4400005  63.4600019  70.0700045  40.9500027  63.0000019  69.2200041
  42.3500013  64.4000053  69.9200010  42.5500011  65.0300026  69.1600037
  42.8600025  64.6300030  71.1800051  43.6800003  65.3100014  71.3700056
  41.7500019  63.2300043  75.7700014  41.4200020  62.1800041  76.2200022
  42.4800014  64.1200018  76.5000057  42.6400042  65.0800037  76.2100029
  42.9900026  63.7700033  77.8200054  43.4500027  62.7900028  77.7700043
  44.1300011  64.7500038  78.3000040  44.6700001  64.4700050  79.2000055
  45.2600002  64.5800018  77.3100042  45.5300045  63.5300016  77.1800041
  44.9900007  65.0200033  76.3500023  46.0900021  65.2000046  77.6500034
  43.5400009  66.1600018  78.4800053  44.4700003  66.7100048  78.5900021
  42.9700041  66.5000010  77.6200056  43.0500031  66.2400055  79.4500017
  41.9000006  63.5900021  78.8600016  42.1800041  63.1900024  79.9700022
  40.6100035  63.8800049  78.5400057  40.3999996  64.2600012  77.6300049
  39.4400024  63.4400034  79.3500042  39.8500013  63.4300041  80.3700066
  38.3400011  64.5500040  79.3200016  38.0700016  64.6900034  78.2700014
  38.9200020  65.4000044  79.6600056  37.2500014  64.2700052  80.3299999
  37.7000022  64.2100048  81.3199997  36.7700028  63.3100033  80.1300049
  36.1500025  65.3800011  80.4500008  35.5000019  65.4300022  79.5800018
  36.7200017  66.3100052  80.5000019  35.2400017  65.0800037  81.6700077
  35.8800006  65.0300026  82.5600052  34.7400022  64.1100025  81.6600037
  34.2800021  66.2700033  81.9400024  33.4400010  66.1200047  81.4200020
  34.0800023  66.2300014  82.9400063  34.7100019  67.1300030  81.6400051
  38.9700007  62.0000029  79.0800047  38.8900018  61.2200022  79.9800014
  38.8500023  61.6300011  77.8100014  39.2100024  62.2300053  77.0800018
  38.5900021  60.2600050  77.4900055  37.8400016  59.9300051  78.2200050
  38.0000019  60.3400040  76.0800028  38.8100028  60.2900028  75.3400040
  37.5400019  61.3100052  75.9100056  36.8800020  59.2500019  75.8300018
  37.2600007  58.2300043  75.8800030  35.6500006  59.4700050  76.7800045
  35.9000015  59.6100044  77.8300047  35.1700020  60.4300022  76.5800047
  34.9800014  58.6100006  76.7400026  36.4600015  59.3900013  74.3500042
  35.8400011  58.5500050  74.0300035  35.7800007  60.2200031  74.1800022
  37.2900009  59.4400024  73.6400032  39.8500013  59.3400049  77.7900028
  39.5800018  58.1500006  78.1000042  41.0700035  59.8300028  77.8800058
  41.2500000  60.6500006  77.3300028  42.2100019  59.0100050  78.4500027
  42.2000027  58.0000019  78.0200052  43.5800028  59.6500015  78.1900024
  43.4500027  60.6300020  78.6600018  44.8500013  59.1100025  78.8800049
  45.7400036  59.7000027  78.7200022  44.9700022  58.9900017  79.9500036
  45.0800037  58.1200027  78.4700060  43.9100027  59.8700047  76.8100023
  44.2100000  58.9900017  76.2400055  43.0500031  60.3400040  76.3500023
  44.6800041  60.6300020  76.8000031  41.9300032  58.8200045  80.0000000
  42.1600008  57.7500010  80.5300045  41.2600040  59.7800016  80.6599998
  40.8400011  60.5200052  80.1200008  40.8700037  59.5900011  82.0900059
  41.8200016  59.4100046  82.6000023  40.3600025  60.9200048  82.6500034
  39.3700027  61.0900021  82.2600079  40.9899998  61.7600012  82.3400021
  40.1999998  60.8100033  84.1800022  41.1899996  60.8300018  84.9500084
  39.0000010  60.5700016  84.7500038  38.1600022  60.5000019  84.2000008
  39.0000010  60.2300024  85.7000065  39.8000026  58.4700012  82.2900009
  40.0200033  57.5800037  83.0600071  38.7500024  58.4600019  81.4300060
  38.6800027  59.2500019  80.8100033  37.6300025  57.5500011  81.5400028
  37.3600006  57.6200008  82.5900078  36.4600015  58.1300020  80.7100010
  35.6300020  57.4400043  80.8300018  36.6700006  58.2900047  79.6600056
  36.0100007  59.5600033  81.1100006  35.4000020  59.9900007  80.3100014
  36.9300008  60.1400042  81.1400032  35.4200006  59.6500015  82.5500011
  36.1200023  60.2600050  83.4000015  34.2800021  59.1200018  82.7800083
  38.0300021  56.0900021  81.3700008  37.3500013  55.1700020  81.8000031
  39.0800023  55.9500027  80.5900002  39.4100022  56.7400026  80.0600052
  39.6200013  54.6500015  80.2099991  38.9400029  53.8200045  80.4300022
  40.0600004  54.6600008  78.7600040  40.8599997  55.4100037  78.7000036
  40.6300020  53.3200026  78.3300018  41.6000032  53.4500027  78.7900019
  40.0400019  52.4700022  78.6600018  40.8200026  53.2100010  77.2600031
  38.9300013  54.9400043  77.7700043  38.2400012  54.1000032  77.7000046
  38.3600020  55.8300018  78.0200052  39.3500018  55.0500011  76.7700052
  40.7200003  54.1800022  81.2100029  40.9300041  53.0700016  81.5500069
  41.6499996  55.0600004  81.6300011  41.3700008  56.0300016  81.4900017
  42.7600002  54.8100042  82.6399994  43.3000040  53.9300013  82.2900009
  43.8700008  55.8600044  82.8000069  43.5100031  56.8500042  83.1100082
  45.0600004  55.4200029  83.6500072  45.8500004  56.1800003  83.5800076
  44.8699999  55.3800011  84.7200012  45.5300045  54.4900036  83.3400059
  44.3200016  56.0900021  81.4800072  43.8200045  56.7700005  81.0300064
  42.1700001  54.4800043  84.0000057  42.5699997  53.5200024  84.6500015
  41.1300039  55.2200031  84.3800068  40.8000040  55.9800005  83.8100052
  40.4400015  55.0900030  85.6500053  41.1300039  54.9400043  86.4900017
  39.6900010  56.4000034  86.0599995  39.0600014  56.1900043  86.9300079
  39.0300012  56.6900015  85.2400017  40.6900024  57.5700045  86.2900066
  40.1300001  58.4600019  86.5500069  41.2100029  57.7900028  85.3600025
  41.7200041  57.3200035  87.4100018  41.3600016  56.8300009  88.5200024
  42.9100037  57.7700043  87.3300076  39.6300030  53.8000011  85.6700039
  39.4200015  53.2600021  86.7900085  39.1300011  53.2800007  84.5400047
  39.3300009  53.7600040  83.6800003  38.3900023  52.0200014  84.4799995
  37.8200006  52.0100021  85.4100037  37.4600029  51.8800020  83.2600021
  38.1100011  51.7500019  82.3900032  36.9300008  52.8100014  83.0200005
  36.5100026  50.7000017  83.4700012  36.8000007  49.4200039  82.9300022
  37.7500010  49.1700029  82.4800014  35.8700013  48.3500004  83.1800079
  36.0600019  47.3400021  82.8500080  34.7100019  48.5500002  83.9300060
  33.9900017  47.7900028  84.1400051  34.4100022  49.8500013  84.3100071
  33.4800005  49.9900007  84.8500061  35.2500010  50.8700037  84.0900040
  34.9500012  51.8500042  84.4500065  39.3800020  50.7800007  84.5300007
  39.3200016  49.9500036  85.4100037  40.3800011  50.7300043  83.6500072
  40.3400040  51.5000010  82.9900074  41.4400005  49.6700001  83.5100079
  40.8599997  48.7800026  83.2800007  42.3500013  50.0900030  82.3400021
  43.1900024  49.4100046  82.3200035  41.8800020  49.8200035  81.3899994
  42.7700043  51.1000013  82.3700047  42.1800041  49.4000006  84.8300076
  42.3100042  48.2200003  85.2600002  42.4900007  50.5400038  85.5400085
  42.2800016  51.4000034  85.0600052  43.0900002  50.5500031  86.8700027
  43.8700008  49.7700024  86.8600082  43.5500002  52.0300007  87.1500015
  42.7700043  52.8000021  87.1300030  44.1300011  52.3800039  86.2900066
  44.4200039  52.2400045  88.3900070  45.1900005  51.4800024  88.2900047
  43.7300014  51.9800043  89.1900063  45.0200033  53.5800028  88.4500027
  45.5700016  53.8400030  87.5400066  45.6700039  53.7100029  89.3200016
  44.0000010  54.6600008  88.5800076  43.4600019  54.5600033  89.5300007
  43.2900000  54.4700003  87.7700043  44.6000004  56.0100031  88.4500027
  45.0500011  56.2900019  89.3100071  45.3200006  56.0700035  87.7400017
  43.8600016  56.6500044  88.2000065  42.1099997  50.1100016  87.9900074
  42.4300003  49.4900036  88.9900017  40.8100033  50.3700018  87.8100014
  40.5600023  51.0300016  87.0800018  39.7700024  49.7400045  88.6800003
  40.1400042  49.9300003  89.6900082  38.4000015  50.3900003  88.5300064
  38.0000019  50.2600002  87.5200081  37.4200010  49.8200035  89.5500088
  36.5400028  50.4600000  89.6700001  37.0100021  48.8700008  89.2200089
  37.9700017  49.6400023  90.4900074  38.4700012  51.7200041  88.9000034
  38.7700009  52.2700024  88.1700039  39.7600007  48.2100010  88.5100079
  39.7300029  47.4800014  89.5000076  40.0200033  47.6700020  87.3300076
  39.9700022  48.2800007  86.5200043  40.0900030  46.2100029  87.0600033
  39.1400027  45.7700014  87.3600006  40.2800035  45.8700037  85.5700016
  40.0000000  44.8200035  85.5500031  41.2000036  45.9700012  84.9900055
  39.0600014  46.6800022  84.6100044  41.1600018  45.4800034  87.8999996
  40.9500027  44.3300009  88.2600021  42.3300028  46.0700035  88.2800007
  42.5300026  47.0200014  87.9900074  43.2800007  45.3299999  89.2200089
  43.2600021  44.3200016  88.8100052  44.6800041  45.9000015  89.1000080
  45.3900003  45.1000023  89.3600082  45.1400042  46.1800003  87.7000046
  45.2100039  45.2600002  87.1200085  44.4000006  46.8100023  87.1900082
  46.1199999  46.6400003  87.7600002  44.9000025  47.2700024  89.8900032
  44.3400002  48.0300045  89.3400002  44.5000029  47.2400045  90.9000015
  45.9200001  47.6400042  89.9200058  42.7400017  45.2600002  90.6200027
  43.4300041  44.6200037  91.4400005  41.6100025  45.9100008  91.0300064
  41.0300016  46.3900042  90.3600025  41.1100006  45.9100008  92.4200058
  41.6499996  45.2100039  93.0600071  41.4499998  47.2700024  93.0800056
  41.1899996  47.2500038  94.1400051  42.5300026  47.4200010  93.1700039
  40.9800005  48.0800009  92.5400066  39.6000028  45.4900026  92.6500034
  39.2300010  44.9900007  93.7000084  38.7600017  45.6500006  91.6800022
  39.2100024  45.9200001  90.8200073  37.3200011  45.2700043  91.6000080
  36.9800019  44.9500036  92.5900078  36.4200020  46.5000010  91.1800003
  36.6600013  46.6500044  90.1200008  36.7400026  47.4600029  91.6000080
  34.9100018  46.2800026  91.4400005  34.4600010  45.1600027  91.6200066
  34.1000009  47.2200012  91.3500023  37.2200012  44.0900040  90.5900002
  37.7400017  44.1700029  89.4700050  36.6200018  43.0299997  91.0400009
  36.4500022  42.8800011  92.0200062  36.2500024  41.8800020  90.2000046
  36.8900013  41.9900036  89.3300056  36.5400028  40.5600023  90.9899998
  37.4700022  40.7900000  91.5000057  36.5300012  39.7600007  90.2600002
  35.3000021  40.0900030  91.9099998  34.4500017  39.8000026  91.2900066
  35.0000024  40.9600019  92.5000000  35.6200027  38.9900017  92.8900051
  34.7800016  38.1000018  93.0900002  36.6400027  39.0600014  93.6400032
  34.8400021  41.8900013  89.6700001  34.4900012  41.0500002  88.8000011
  33.9700007  42.7300024  90.1500034  34.3500018  43.3000040  90.8900070
  32.5800014  42.6100016  89.9000072  32.1600008  41.6499996  90.2500057
  31.8900013  43.7000036  90.8100033  32.2700024  43.6000013  91.8200016
  30.8200026  43.5800028  90.9600067  32.1500015  45.0300026  90.3800011
  32.9200006  45.1999998  90.9200001  31.9900012  42.9200029  88.5000038
  30.8500004  42.6300001  88.1300068  32.8300023  43.3800030  87.5600052
  33.7400007  43.7400007  87.7900028  32.4500012  43.5500002  86.1000061
  31.4100003  43.3000040  85.9200001  32.6800013  45.0200033  85.8100033
  32.3600006  45.5300045  86.7100048  33.7400007  45.1700020  85.6300068
  32.0100021  45.3500032  85.0000000  33.3100009  42.8100014  85.0800037
  34.5100021  42.9100037  85.0300026  32.6500010  42.0900011  84.2500019
  31.6400003  42.1300030  84.3300056  33.2700014  41.4300013  83.0500031
  34.0100026  40.7400036  83.4500027  32.1200013  40.5500031  82.4400043
  31.4000010  41.1800003  81.9200039  31.4600015  40.1100016  83.2000065
  32.5100017  39.4700027  81.4500046  33.4200025  39.0400028  81.8600082
  32.6400018  39.9000025  80.4400063  31.4700007  38.3600020  81.4000034
  31.3000011  37.5600028  82.3300076  30.6900024  38.3100009  80.4100037
  33.9000010  42.3200035  81.9500065  34.6700025  41.8500042  81.0800076
  33.5700011  43.6600018  81.9000053  32.9500008  44.0200043  82.6200008
  34.1800022  44.5200014  80.9100056  34.0700006  44.3000031  79.8500061
  33.4600019  45.9600019  81.0200024  33.8500023  46.5700006  80.2099991
  33.7800026  46.3800001  81.9799995  31.9400024  45.9400034  80.7999992
  31.1500025  45.8700037  81.7700005  31.5100026  46.0400009  79.5500040
  32.1500015  46.2700033  78.8100052  30.5100012  46.0300016  79.4200039
  35.7300019  44.6100044  81.2000084  36.4700007  45.0600004  80.3700066
  36.1800027  44.2100000  82.4300003  35.4400015  43.9300013  83.0500031
  37.6100016  44.0600014  82.8700066  38.2500029  44.8900032  82.5600052
  37.7000022  43.9499998  84.3600082  38.6700010  43.5200024  84.5700073
  36.9000006  43.3100033  84.7399998  37.4900007  45.5300045  85.1200008
  38.2800007  42.7800035  82.2800064  39.5100021  42.5800037  82.3900032
  37.4700022  41.9099998  81.6499996  36.5000010  42.0000029  81.9300079
  37.9500008  40.6900024  80.9800053  39.0300012  40.7100010  80.9800053
  37.4200010  39.5100021  81.7100048  36.3900018  39.3500018  81.3700008
  37.5000024  39.7000027  82.7800083  38.2700014  38.2600021  81.4300060
  37.6300025  37.1800017  81.5000057  39.5000029  38.4300017  81.2500000
  37.5000024  40.5299997  79.5100021  37.9400015  39.5800018  78.8600016
  36.7000008  41.4700031  79.0600014  36.2900019  42.0800018  79.7400045
  36.3800025  41.6400003  77.6600027  36.1700010  40.6900024  77.1700048
  35.1500010  42.6400042  77.6100016  35.2200007  43.1900024  76.6700029
  35.2800012  43.4700012  78.3000040  33.8100004  41.8500042  77.6700020
  33.9200020  41.4100027  78.6600018  33.7500024  41.0500002  76.9300032
  32.5100017  42.6999998  77.7100039  32.6500010  43.5600042  78.3500051
  31.7200017  42.0500040  78.0800056  32.0700026  43.3200026  76.3400030
  32.9100013  43.8100004  75.8500051  31.4700007  44.2000008  76.5400028
  31.4500022  42.3800039  75.3900051  30.6600022  41.9200039  75.8100033
  31.1800003  42.7900028  74.5100021  32.1600008  41.7000008  75.1700020
  37.7200007  42.1099997  77.0200014  38.5900021  42.5800037  77.7500057
  37.7200007  42.1600008  75.6800032  36.9500017  41.7400026  75.1700020
  38.8700008  42.7400017  74.9300051  39.7100019  42.0700026  75.1300049
  38.4400010  42.6800013  73.4300041  39.3400025  42.5000000  72.8300047
  38.1400013  43.6800003  73.1300020  37.4300027  41.7100000  73.1300020
  37.3400021  41.6700029  72.1700048  39.1700029  44.2200041  75.3200054
  38.2000017  44.9300003  75.5600023  40.4100037  44.6800041  75.2000046
  41.0600042  44.0500021  74.7500038  40.8100033  46.1100006  75.3100014
  40.5000019  46.5200043  76.2700033  42.3300028  46.2100029  75.1000023
  42.6300001  47.2400045  74.8800039  42.6100016  45.6100035  74.2400026
  43.2200003  45.7700014  76.2900019  44.2900038  45.7000017  76.0500050
  43.0299997  46.7400026  77.4700022  42.0000029  46.9099998  77.7900028
  43.5800028  46.3300037  78.3100033  43.4500027  47.6900005  77.1200037
  42.9900026  44.3600035  76.8100023  42.0600033  44.2500019  77.3600054
  42.9500008  43.5800028  76.0400057  43.7000036  43.9800024  77.5500059
  40.1700020  46.9700003  74.1300058  39.5600009  48.0500031  74.4300032
  40.0100040  46.4500046  72.9400015  40.5299997  45.6000042  72.7600050
  39.2500019  47.1000004  71.8400049  39.7000027  48.0800009  71.6900015
  39.3200016  46.2300014  70.5600023  38.3200026  45.8600044  70.3500032
  39.9100018  45.3400040  70.7600021  39.7600007  47.1200037  69.3800020
  39.5700026  48.4900045  69.3000031  40.1300001  48.9000034  68.1300020
  40.1800013  49.9000025  67.7300024  40.6000042  47.8200006  67.4500036
  41.0100031  47.9000044  66.5400028  40.2800035  46.6800022  68.1800032
  40.6100035  45.6800032  67.9500055  37.7300024  47.3300028  72.1900034
  37.1900010  48.4000015  71.8200016  37.1100020  46.4900017  73.0300045
  37.7200007  45.7600021  73.3600044  35.7500029  46.7100000  73.5500050
  35.1700020  47.2500038  72.8000021  34.8200011  45.4400015  73.7800026
  33.8700008  45.6800032  74.2600012  34.5300007  44.7900009  72.4400043
  33.6500025  45.1700020  71.9300032  35.4200006  44.9700022  71.8500042
  34.4300008  43.7100029  72.6100016  35.5000019  44.6300030  74.6200037
  36.0000014  45.1000023  75.3000021  35.6500006  47.7600002  74.6800041
  34.6000028  48.2800007  74.9600029  36.7700028  48.1200027  75.3400040
  37.5900006  47.5600004  75.1700020  36.8500018  49.2000008  76.3500023
  35.9600019  49.2100000  76.9800043  38.0300021  48.7800026  77.2600031
  38.9800024  48.7300014  76.7200041  37.8200006  47.7500010  77.5300026
  38.0700016  49.6500015  78.5600042  38.4200025  50.6400013  78.2700014
  39.1600013  49.0700006  79.4400024  38.7900019  48.1000042  79.7400045
  40.0500011  49.1800022  78.8200045  39.3100023  49.5800018  80.3900051
  36.7300010  49.8300028  79.3100023  36.0900021  50.5100012  78.7500048
  36.2100029  48.8900042  79.4400024  37.0000029  50.3700018  80.2099991
  37.0900011  50.5500031  75.6300020  36.4700007  51.5000010  76.0600042
  37.8700018  50.6000042  74.5500040  38.2400012  49.7400045  74.2000055
  37.9000020  51.7100048  73.6200047  38.1300020  52.6000023  74.2200041
  39.1100025  51.5400028  72.7200031  39.0100026  50.5700016  72.2400045
  40.0600004  51.4600039  73.2400036  39.1700029  52.5500011  71.6200018
  38.9200020  52.1700048  70.3000021  38.5500026  51.1900043  70.0200033
  39.2000008  53.1000042  69.2700052  38.9800024  52.7700043  68.2700014
  39.8200011  54.3200016  69.4900036  39.8200011  55.1300049  68.7800026
  40.1700020  54.5900011  70.8000040  40.7200003  55.5100012  70.8900023
  39.8100019  53.8100004  71.8900013  40.1500034  54.1400003  72.8700018
  36.6100025  51.9700003  72.8500032  36.1600018  53.1600046  72.8000021
  35.8900023  50.8900023  72.4100018  36.2300014  49.9500036  72.5500011
  34.6400023  51.1100006  71.7000055  34.3400025  50.1500034  71.2800026
  34.7700024  51.8200016  70.8800030  33.5500026  51.6700029  72.6400042
  32.7100015  52.5100040  72.2300053  33.5300016  51.3500023  73.9200020
  34.3400025  50.9200001  74.3400049  32.4600005  51.7100048  74.8100042
  31.4900017  51.6300011  74.3200016  32.4500012  50.5700016  75.9200048
  33.3300018  50.6600046  76.5600014  32.4500012  49.5700026  75.4600048
  31.3200021  50.7100010  76.9400024  30.9900022  49.7300005  77.6800060
  30.5000019  51.6600037  76.9400024  32.6700020  53.1100035  75.4000044
  31.7400026  53.9200020  75.4800034  33.9300013  53.4300041  75.7300043
  34.6500015  52.7300024  75.7000017  34.1300011  54.8900032  76.1400032
  33.2900023  55.1900005  76.7500019  35.4300022  55.0600004  76.9100046
  35.8900023  56.0000038  76.6100025  36.0900021  54.3100023  76.4800024
  35.3500009  54.9700022  78.4100056  35.1800013  55.9300041  78.9000034
  36.2700009  54.5400047  78.7800026  34.2300010  54.1200018  79.0700054
  34.2100024  53.0600023  78.8100052  33.2800007  54.6200037  78.8900042
  34.4000006  54.1600037  80.6300068  34.3300009  55.2000046  80.9300041
  35.3000021  53.7300014  81.0400009  33.2100010  53.5300016  81.2600040
  33.1700015  52.5300026  81.1900043  33.0900025  53.7300014  82.2500038
  32.3600006  53.8700008  80.8300018  33.9100027  55.8800030  75.0200033
  33.3800006  56.9700050  75.2400017  34.2900014  55.5400038  73.7800026
  34.6900010  54.6200037  73.6400032  34.0100026  56.3500023  72.5500011
  34.6300006  57.2400045  72.6300049  34.6700025  55.6300020  71.3600016
  34.2400026  54.6300030  71.2500048  35.7200027  55.4800034  71.6100025
  34.5400023  56.3200045  69.9500036  34.3300009  57.3900032  70.0500011
  35.8000016  56.1700010  69.1400051  35.8500028  56.5300035  68.1200027
  36.5700006  56.5800047  69.7900057  35.9900022  55.1000023  69.1900015
  33.3700013  55.5800009  69.1700029  32.5000024  55.4200029  69.8000050
  33.2700014  56.0000038  68.1600046  33.7000012  54.5700026  68.9300013
  32.5700021  56.7100048  72.3800039  32.2400022  57.9400015  72.1900034
  31.6400003  55.7600021  72.5600052  31.9700027  54.8500013  72.8300047
  30.1700020  56.0800028  72.6800013  30.0300026  56.7500019  71.8300056
  29.3500018  54.8300028  72.3500013  28.3200002  55.1700020  72.3100042
  29.3200016  54.0800047  73.1400013  29.7700024  54.0100002  70.7900047
  29.6200013  56.8200016  73.9400053  28.4000015  57.0900011  73.9100027
  30.5100012  57.1900034  74.8700047  31.5000010  56.9500017  74.8900032
  29.9400020  58.0700016  75.8900023  28.9100003  57.7500010  76.0700035
  30.7000017  58.0600023  77.2100019  30.2100015  58.6600018  77.9700041
  30.9400010  56.6700029  77.7300024  31.8900013  56.5900040  78.2600021
  30.0600004  56.2300014  78.2000017  31.0300016  56.0500050  76.8400049
  31.9100022  58.7300014  76.9700050  32.3700023  58.0700016  76.4500046
  29.8500013  59.5000029  75.3300047  28.9700007  60.2200031  75.7200050
  30.7600021  59.8400021  74.4200039  31.5000010  59.2000008  74.1400051
  30.7600021  61.1100006  73.7700033  30.1900005  61.8600035  74.3300056
  32.2200012  61.7200041  73.7400055  32.3000026  62.5500011  73.0300045
  32.7600026  62.0700026  75.1400042  32.3000026  62.9700041  75.5300045
  32.4000025  61.2400007  75.7500029  33.8500023  62.1100044  75.0800037
  33.2000017  60.6900024  73.2100058  32.8300023  60.1700020  72.3400021
  34.1200018  61.2200022  72.9900026  33.2700014  59.8900032  73.9600039
  30.1800013  61.0300016  72.4200058  29.6200013  62.0400047  71.9600058
  30.3100014  59.8900032  71.6800022  30.8800006  59.1700029  72.1000051
  30.0500011  59.8000050  70.2700043  30.4600024  60.6700039  69.7600031
  30.7200003  58.5700035  69.6100044  31.8000007  58.5500050  69.6000051
  30.3200006  57.6200008  69.9600029  30.4200006  58.4900045  68.5600042
  28.5400009  59.8500013  69.8200035  28.2400012  59.7800016  68.6300039
  27.6500010  60.1500034  70.7700014  28.0300021  60.3900051  71.6700029
  26.2700009  60.4800034  70.4700041  25.9900022  59.8200035  69.6400023
  25.3100014  60.3100014  71.6700029  24.3500018  60.6500006  71.2900019
  25.1800013  58.9300013  72.2600031  25.1100016  58.2100010  71.4600039
  26.1000013  58.7500048  72.8400040  24.3000007  58.9400005  72.9100037
  25.6600022  61.1600018  72.8200054  25.1400018  61.9700050  72.7900028
  26.1400008  61.9400024  69.9300051  25.2300000  62.2100019  69.1800022
  27.0000005  62.9000044  70.3000021  27.6700020  62.4700022  70.9400034
  26.8700004  64.3400049  69.9900055  25.8700013  64.4700050  70.3900051
  27.8600001  65.0100040  70.8600044  28.0100012  66.0300016  70.5100012
  28.8700008  64.6100044  70.8500051  27.6700020  65.1000023  72.3700047
  27.7000022  64.1000032  72.8100014  28.6800003  66.0600042  73.0700016
  29.7100019  65.7800055  72.8600025  28.5900021  67.1000051  72.7100039
  28.3800006  66.0000038  74.1100025  26.3000011  65.7900047  72.6300049
  26.3100004  65.9400034  73.7000036  26.1400008  66.7600012  72.1300030
  25.4700017  65.1100016  72.4500036  27.0400023  64.4500017  68.4900045
  28.2100010  64.3300009  68.0000019  25.9800005  64.7500038  67.7100039
  25.1000023  65.0800037  68.0700016  25.9900022  64.8600054  66.2800026
  26.3900018  63.9500046  65.8500051  24.5100021  65.0100040  65.8400011
  24.5600009  65.3400040  64.8100042  24.1400003  65.7800055  66.5200043
  23.6200023  63.7300014  65.9400034  22.6100016  63.9800024  65.6300020
  23.6400008  63.2500029  66.9100046  24.0700006  62.5800037  64.9500036
  25.0800014  62.3100042  65.2300024  24.1500020  62.9100037  63.9200020
  23.0500007  61.4900017  64.9200010  22.1399999  61.6800022  65.2900028
  23.0800009  60.4200029  64.1200018  24.1400003  60.2000046  63.3500051
  24.9600005  60.8000040  63.2900047  24.1500020  59.4500017  62.6800013
  22.0800018  59.6000051  64.0700054  21.3000011  59.8100042  64.6700048
  22.1200013  58.7400007  63.5400009  26.8500018  66.0900021  65.7900047
  27.3100019  66.0800028  64.6900034  26.9600010  67.1600056  66.6900015
  26.6200018  67.0100021  67.6300049  27.7600002  68.3300018  66.4500046
  27.5100017  68.7400055  65.4800034  27.2900009  69.2900038  67.5900030
  26.2100005  69.5000029  67.5300026  27.7600002  70.2400017  67.3600054
  27.5400019  68.9200020  69.0100050  27.8900003  69.8700047  69.4400024
  28.3000016  68.1600046  69.1100025  26.2500024  68.5100031  69.6500015
  25.4800010  67.6900053  69.1400051  26.0100007  68.9900017  70.8100033
  29.2600012  68.2200050  66.5500021  30.0100017  69.1400051  66.2400055
  29.7100019  67.1200037  67.1300030  28.9800024  66.5100050  67.4800014
  31.1400008  66.8100023  67.2600031  31.7600012  67.4200010  66.6000032
  31.6700006  66.9100046  68.6800051  32.6700020  66.5100050  68.7600040
  31.7500019  68.3000040  69.3600035  31.0100007  68.9900017  68.9600039
  31.5300012  68.2300043  70.4200029  32.7300024  68.7300014  69.1400051
  30.6900024  66.3100052  69.5400047  30.9300017  66.5700054  70.4300022
  31.5300012  65.4300022  66.6700029  32.7500010  65.3300047  66.4700031
  30.5900025  64.4900036  66.4300013  29.6500015  64.4500017  66.8200016
  30.9500003  63.2100010  65.8700037  32.0000005  63.2900047  65.5900049
  30.8400011  62.1500015  66.9700050  31.0900021  61.2000036  66.5100050
  29.8300004  62.0800018  67.3800039  31.6300011  62.4400043  68.2100010
  31.0300016  63.0300045  69.3800020  29.9600005  63.1800032  69.3300056
  31.8400025  63.3700037  70.4600048  31.3200021  63.6700010  71.3600016
  33.2200027  63.1500053  70.4500055  33.9600015  63.5800028  71.5800047
  34.8900008  63.3500051  71.6800022  33.8700008  62.6400042  69.2600012
  34.9200010  62.4300051  69.1900015  33.0600023  62.1700048  68.1700039
  33.5500026  61.6800022  67.3600054  30.1200008  62.7900028  64.6000051
  30.5400014  61.8200016  63.9500046  28.9400005  63.3900023  64.3600035
  28.5700011  63.9900017  65.0800037  28.2400012  63.3300018  63.0400038
  28.8700008  63.6000013  62.1900034  27.4500012  64.0700054  63.1300020
  27.6500010  61.8700027  62.9300022  26.8300009  61.3800049  63.7900019
  28.0900002  61.1400032  61.9100046  28.8600016  61.6100025  61.4600039
  27.6500010  59.8000050  61.5500021  26.5600014  59.7700024  61.6500044
  28.1100011  59.4000006  60.1600027  28.2600021  58.3300018  60.1000023
  29.1000009  59.7900009  59.9500036  27.1700025  59.8300028  59.0300035
  27.7800012  59.8000050  58.1300020  26.8200016  60.8600044  59.1300011
  25.9200001  58.9400005  58.8500023  24.8100019  59.4900036  58.6500025
  26.0300016  57.6800013  58.9500046  28.1200004  58.6900043  62.5500011
  27.6200008  57.6100016  62.6700020  29.1000009  59.0500021  63.3200026
  29.4800019  59.9800014  63.2300043  29.6600008  58.0700016  64.2800045
  29.8200011  57.1600008  63.6900043  30.9000015  58.6800051  64.9700022
  30.5300021  59.3300009  65.7600021  31.4200020  59.2600012  64.2000008
  31.9800019  57.7700043  65.5800009  32.3500013  57.1300030  64.7900009
  31.5400004  57.0700026  66.3100052  33.4800005  58.5700035  66.2800026
  34.8900008  57.7700043  65.4300022  35.8400011  57.9800034  65.9000015
  34.6700025  56.7000008  65.4600048  35.0500011  58.2000017  64.4300032
  28.6100006  57.6100016  65.3100014  28.5700011  56.4500046  65.7600021
  27.6700020  58.4500027  65.6100035  27.8200006  59.4200039  65.3800011
  26.5100002  58.1900024  66.4600039  26.8100023  57.9400015  67.4700022
  25.7400012  59.4700050  66.6100025  25.1400018  59.5800018  65.7100010
  25.0900006  59.5200014  67.4800014  26.4200020  60.3300047  66.6100025
  25.6100011  57.0600033  65.9900045  24.6700001  56.6900015  66.7500019
  25.7100010  56.6400003  64.7100019  26.5300012  57.0100021  64.2500019
  25.0400019  55.5300045  64.1000032  24.1800022  55.2300024  64.7000027
  24.5800018  55.7400036  62.6000023  23.9000010  54.9400043  62.3400021
  25.4300022  55.7600021  61.9300032  23.8500023  57.0400047  62.3700047
  22.7600002  57.2200012  62.9600048  24.4400001  57.9100037  61.6600037
  25.8500004  54.2200041  64.1400051  25.3200006  53.0700016  64.2400026
  27.2000003  54.3700027  64.0900040  27.5000024  55.3300047  63.9900017
  28.1200004  53.1800032  64.1900015  27.8600001  52.3800039  63.5000038
  29.5700026  53.5700035  63.9600039  30.1700020  52.7700043  64.3900013
  29.6600008  54.3500042  64.7300053  30.2600026  54.1100025  62.3500013
  28.0200005  52.4300003  65.5800009  28.1300020  51.2200022  65.7500029
  27.7100015  53.2500029  66.6100025  27.6900005  54.2400026  66.4300013
  27.6100016  52.8600025  68.0400038  28.4800005  52.2900009  68.3700037
  27.4400020  54.0900040  68.8000011  26.8900013  53.9200020  69.7300053
  26.8100023  54.7500038  68.2100010  28.9300013  55.0400019  69.2400026
  26.4000010  51.8600035  68.3000040  26.3300014  51.2300014  69.3100023
  25.4400015  51.9200039  67.3600054  25.7300019  52.2700024  66.4600039
  24.1000009  51.1900043  67.4100018  23.9200020  50.9100008  68.4500027
  22.9400015  52.1200037  66.9600010  21.9800019  51.6200018  67.0200014
  23.0400014  53.0200005  67.5600052  23.0800009  52.3300028  65.9000015
  24.0200019  49.8400021  66.6400051  22.9700017  49.2100000  66.4600039
  25.2500010  49.4300032  66.2000036  26.0700011  49.9400043  66.5200043
  25.4500008  48.1300020  65.4900026  24.5200014  47.9000044  64.9700022
  26.5600014  48.2900000  64.3600035  26.7600012  47.3300028  63.9000034
  27.4100018  48.5000038  65.0000048  26.3200021  49.2100000  63.1400013
  26.1900020  50.1900005  63.6000013  25.4500008  49.0300035  62.5200033
  27.6100016  49.3200016  62.2000027  28.4400010  49.3300009  62.9100037
  27.5100017  50.2500010  61.6400051  27.6200008  48.1400013  61.2600040
  26.8700004  48.3100033  60.4900026  27.3900008  47.2200012  61.7800045
  28.9600015  47.8400040  60.5800009  29.0800023  48.6600018  59.9900007
  29.7500014  47.6700020  61.1800051  28.8300014  46.9500017  60.1100016
  25.8400011  46.9400024  66.4300013  26.0300016  47.2700024  67.6000023
  25.8300018  45.7100010  65.9500027  25.7800007  45.5700016  64.9500036
  26.1900020  44.6000004  66.7200041  25.6800008  44.7200012  67.6900053
  25.6700015  43.4000015  66.0600042  24.5800018  43.4200001  66.0400009
  25.8300018  42.5600004  66.7600012  26.2600017  43.0800009  64.6600008
  27.3300004  43.1900024  64.7900009  25.8800006  43.7100029  63.8600016
  26.0800004  41.6100025  64.3100023  25.7600021  40.7400036  65.1200008
  26.1800003  41.2500000  63.0900049  26.5300012  41.8000031  62.3200035
  25.7300019  40.3800011  62.8300047  27.6900005  44.5600033  67.0400047
  28.4800005  45.2100039  66.3000011  28.0800009  43.8400030  68.0600023
  27.4400020  43.1700039  68.4700012  29.4100022  43.9000034  68.6900043
  29.6200013  44.9000025  69.0700054  29.6400023  43.0100012  69.9500036
  29.7700024  42.0100021  69.5700026  28.7900019  42.9800034  70.6200027
  30.8900023  43.5500002  70.7300043  30.7000017  44.6100044  70.7400036
  31.8400025  43.3800030  70.2100039  30.8800006  42.9600000  72.1300030
  30.6800008  43.7200022  73.0800056  31.1200023  41.7600012  72.1900034
  30.5400014  43.6100006  67.7100039  31.4600015  44.4600010  67.6900053
  30.4400015  42.5500011  66.9000053  29.4200015  41.5400028  66.7900038
  28.5700011  42.0600033  66.3400030  29.0500021  41.1899996  67.7500010
  29.8700023  40.3600025  65.9700012  29.0300012  40.1100016  65.3300047
  30.1800013  39.5200014  66.6000032  31.1500025  40.7800007  65.3200054
  30.9100008  40.8000040  64.2600012  31.9200015  40.0600004  65.5700016
  31.5200019  42.2399998  65.9400034  32.4800014  42.1099997  66.4400053
  31.8300009  43.2100010  64.8000050  32.8700018  43.0800009  64.1100025
  31.0500026  44.2400026  64.6700048  30.3000021  44.4500017  65.3100014
  31.0100007  44.9800014  63.4000015  31.9500017  44.9800014  62.8400040
  29.8900008  44.4400024  62.4000025  30.1600003  44.9200010  61.4600039
  28.9200020  44.8800039  62.6000023  29.8200011  42.8600025  62.1400023
  29.4800019  42.3300028  63.0300045  30.7700014  42.4400043  61.7800045
  28.8100004  42.7300024  61.0600042  27.5800014  42.7200031  61.3000011
  29.1400003  42.8000021  59.8600006  30.8100009  46.5100002  63.7200022
  30.3000021  47.1600008  62.8100014  31.3900018  47.0500040  64.8100042
  31.9500017  46.3600016  65.3000021  31.5000010  48.4800005  65.0400019
  30.8900023  49.0000010  64.3100023  31.2000012  48.8800001  66.4900017
  31.0600019  49.9400043  66.6400051  32.0100021  48.5600042  67.1500015
  29.8600006  48.2400036  66.9600010  30.0300026  47.1800041  67.1500015
  29.1100025  48.3300018  66.1800051  29.3600011  48.9500046  68.1900024
  29.0000010  49.9400043  67.9400015  30.1100016  49.1600037  68.9500046
  28.2200003  48.2000017  68.8800049  27.3500013  48.1400013  68.3600044
  28.2600021  47.6000023  70.0500011  29.3500018  47.2600031  70.6100035
  30.2600026  47.4900007  70.2100039  29.3900013  46.7100000  71.4600039
  27.1500015  47.2000027  70.5600023  26.2800002  47.3100042  70.0500011
  27.1300006  46.6800022  71.4300013  32.9300022  48.9600039  64.6800041
  33.0500007  50.0700045  64.1500044  33.9500022  48.2500029  65.0900030
  33.8500023  47.4600029  65.7100010  35.3200006  48.6800003  64.7300053
  35.4400015  49.6800041  65.1500034  36.3700008  47.8400040  65.4300022
  36.2800026  46.8300009  65.0300026  36.1900020  47.7900028  66.5100050
  37.7400017  48.3900023  65.2400017  38.1000018  49.5000029  65.5200052
  38.5500026  47.6100016  64.6000051  38.3000016  46.6700029  64.2800045
  39.4600010  47.9600000  64.3900013  35.5500007  48.9100027  63.2700014
  36.1100006  49.9000025  62.8000021  35.0300026  48.0600023  62.3600006
  34.4600010  47.3300028  62.7500010  35.0500011  48.3000040  60.8800030
  36.0400009  48.5300016  60.5200052  34.5500016  47.0400000  60.1200008
  35.1700020  46.2200022  60.4900026  34.6900010  47.1400023  59.0400028
  33.1100011  46.6100025  60.4000044  32.4300027  47.4000025  60.0600052
  33.1400013  46.4600039  61.4700031  32.7500010  45.3800011  59.6100044
  33.0400014  44.2300034  60.0100040  32.0400023  45.6300020  58.6000013
  34.1800022  49.5900011  60.5600023  34.5000005  50.2400017  59.5500040
  33.1600022  49.9900007  61.3000011  32.8400016  49.3600035  62.0100021
  32.4300027  51.2600040  61.1700010  32.2200012  51.4200020  60.1100016
  31.0300016  51.1300039  61.7300034  31.0500026  51.0500002  62.8200006
  30.5500007  50.2200031  61.3700008  29.8500013  52.4700022  61.1300039
  33.2700014  52.4900007  61.6600037  33.2800007  53.6000013  61.0300016
  34.0000010  52.3500013  62.7900028  33.9600015  51.4600039  63.2700014
  34.8800015  53.4000015  63.2900047  34.3800020  54.3700027  63.3200026
  35.1300025  52.9600048  64.7100019  35.9400010  53.5800028  65.1000023
  35.4900026  51.9400024  64.6200037  33.9000010  52.9700041  65.6300020
  32.9300022  54.0300035  65.5600023  33.1500006  54.8600006  64.9100018
  31.8500018  54.0600014  66.5200043  31.1900020  54.9100018  66.5800047
  31.6700006  52.9800034  67.4100018  30.8800006  52.9400015  68.1300020
  32.6200008  51.9100046  67.4300051  32.4500012  51.0400009  68.0400038
  33.6900020  51.8900013  66.5300035  34.4100022  51.0900021  66.6100025
  36.2000012  53.5200024  62.4900007  36.7600012  54.6000004  62.4100018
  36.6400027  52.5700045  61.7400026  36.1800027  51.6700029  61.8700027
  37.8300023  52.7200031  60.7700014  38.6200023  53.3100033  61.2300014
  38.3300018  51.2800026  60.4100037  38.8000011  51.4500046  59.4400024
  37.5000024  50.6100035  60.2400017  39.3100023  50.6400013  61.4500046
  38.8400030  50.4000044  62.4000025  39.7200012  49.2800045  60.8400011
  38.8200021  48.7100029  60.6200027  40.1999998  49.4500017  59.8800039
  40.3500032  48.6400032  61.4700031  40.6200027  51.4500046  61.6400051
  40.3999996  52.4500036  62.0100021  41.2400007  51.0500002  62.4400043
  41.1199999  51.5600014  60.6800032  37.5300026  53.5900021  59.5200014
  38.4800029  54.2300034  58.9800024  36.2700009  53.7100029  59.0600014
  35.5800009  53.1700039  59.5600033  35.7600021  54.7200012  58.0600023
  36.5100026  54.6700048  57.2700024  34.3500018  54.2300034  57.5800037
  33.6800027  55.0700045  57.4000025  33.9300013  53.5600042  58.3200026
  34.5400023  53.3700037  56.2800026  35.4300022  52.7800035  56.4900017
  34.7700024  53.9100027  55.3700018  33.4900022  52.3600006  55.9400034
  32.4400020  52.1700048  56.5200043  33.7700009  51.6100025  54.8700047
  34.6100020  51.7900038  54.3400049  33.0800009  50.9600019  54.5100021
  35.6600022  56.1900043  58.4600019  35.6100011  57.1100044  57.6200008
  35.7900023  56.4600039  59.7500038  35.9200025  55.7400036  60.4400015
  36.1200023  57.8000021  60.3100014  35.5600023  58.4900045  59.6800041
  35.4200006  57.9600048  61.6700029  35.7600021  58.9300013  62.0500040
  35.7500029  57.1500015  62.3100042  33.9300013  57.9700041  61.5900040
  33.1600022  59.0500021  61.3100052  33.5600019  59.9400043  61.0600042
  31.8700004  58.6400032  61.3300037  31.0600019  59.2700005  60.9900045
  31.7300010  57.3800039  61.7200041  33.0900025  56.9600010  62.0500040
  33.3700013  55.9400034  62.3100042  37.6300025  58.2100010  60.2900028
  38.0600023  59.2900038  60.7400036  38.4300017  57.2900009  59.7500038
  38.0600023  56.4000034  59.4500017  39.8700023  57.6500034  59.4600010
  40.2100039  58.3900023  60.1800013  40.7600021  56.4400005  59.7100019
  41.7500019  56.6600037  59.3300009  40.4800034  55.5600023  59.1200018
  40.7200003  56.0100031  61.1600018  39.7400022  55.6000042  61.4000034
  40.8200026  56.8700027  61.8300009  41.8100023  54.9900007  61.5100050
  42.7400017  55.2600050  61.0400009  41.5600014  54.0700006  60.9800053
  42.0000029  54.8100042  63.0500031  41.1700010  54.3100023  63.5500050
  42.0200014  55.7700014  63.5900021  43.2100010  54.0300035  63.3400011
  44.0500021  54.4700003  63.0300045  43.5300016  54.0100002  64.2900038
  43.3000040  53.0600023  63.0700016  40.1000023  58.2500029  58.0500031
  39.3400025  57.9000044  57.1400023  41.0600042  59.0600014  57.9800034
  41.5799999  59.2500019  58.8300037  41.4300013  59.7900009  56.7900038
  41.2900019  59.1700029  55.9000015  40.5299997  61.0000038  56.6000032
  40.7500029  61.6700029  57.4300051  39.5000029  60.6500006  56.5700006
  40.8000040  61.7900038  55.2800035  40.0200033  62.8000021  55.1600027
  41.6400003  61.4500046  54.4100046  42.9300022  60.1900005  56.7600012
  43.4400034  60.8000040  57.7000046  43.7200022  59.8000050  55.7900047
  43.2700014  59.4600010  54.9500036  45.1100016  60.1700020  55.6800032
  45.5300045  60.0500011  56.6800022  45.7900000  59.1300011  54.7400045
  46.8800020  59.1400051  54.7600031  45.5500031  59.4100046  53.7100029
  45.3400040  57.7200031  54.9300003  44.3900013  57.2500038  54.2600012
  45.8700037  57.0500040  55.8100033  45.3800011  61.6600037  55.2200031
  46.4600039  62.1400023  55.2900028  44.3800020  62.3000050  54.5800018
  43.5200024  61.7900038  54.3900013  44.5500040  63.6900043  54.0900040
  45.4300022  64.1800022  54.4800043  44.7300005  63.7600040  52.5200033
  44.5800018  64.7800016  52.1300030  43.9700031  63.1400013  52.0700026
  46.0400009  63.1300020  52.1700048  47.0100021  63.7200022  52.5000048
  46.1800003  62.0200014  51.5100002  45.3100014  61.5400028  51.3100004
  47.0400000  61.4900017  51.4600039  43.3900023  64.5300007  54.6000004
  42.7300024  65.3300047  53.8900042  43.1800032  64.4900036  55.9600019
  44.0700006  64.0000010  57.0200014  45.1100016  64.3500042  57.0200014
  44.1500044  62.9200029  56.9600010  43.5600042  64.4800043  58.3900023
  44.1400003  65.3000021  58.8200045  43.5000038  63.5700035  58.9900017
  42.1500015  65.0200033  58.0700016  41.8600035  65.7900047  58.7900019
  41.4900017  64.1500044  58.2100010  42.2399998  65.4300022  56.6400003
  41.2600040  65.3200054  56.1800003  42.8400040  66.8300009  56.4600039
  44.0500021  67.0500040  56.5200043  42.0100021  67.8300047  56.3800049
  41.0900021  67.4100018  56.2900019  42.3200035  69.2200041  56.4400005
  43.0600023  69.5600033  55.7300043  40.9700012  69.8900032  56.0500050
  40.3100014  70.0400019  56.9000006  40.4800034  69.2800045  55.3000021
  41.2200022  71.2400055  55.4000044  42.0300007  71.4200020  54.5000029
  40.4600000  72.1900034  55.9000015  39.8700023  72.1400023  56.7200041
  40.6200027  73.0900049  55.4600048  42.8299999  69.6300030  57.8600025
  42.0600033  70.0000048  58.7700033  44.1400003  69.6800041  58.0800009
  44.7300005  69.2600012  57.3700047  44.7300005  70.2700043  59.3000031
  43.8900042  70.7000017  59.8300028  45.4500008  69.1200018  59.9900007
  46.2000036  69.4500017  60.7100010  46.0700035  68.6300039  59.2400026
  44.4500017  68.1200027  60.6100035  43.7200022  67.8600025  59.8500013
  45.3200006  66.9900036  61.1000013  45.9900045  66.6700029  60.3000021
  45.8800030  67.3100042  61.9800043  44.6400023  66.2000036  61.3900042
  43.6600018  68.7100029  61.7700052  44.3600035  69.0100050  62.5500011
  43.0800009  69.6000051  61.5300035  43.0200005  67.9800034  62.2600031
  45.6300020  71.4300013  59.0000010  46.2500000  71.4300013  58.0100012
  45.7500029  72.4100018  59.9000025  45.2700043  72.4800014  61.2400007
  45.4600000  71.5800047  61.8300009  44.1900015  72.5400019  61.2100029
  45.8900023  73.7000036  61.9300032  46.6500044  73.3700037  62.6400042
  45.0700045  74.2300034  62.3900032  46.5000010  74.5600033  60.7700014
  47.5000000  74.9100018  61.0400009  45.7300043  75.2800035  60.5000019
  46.6600037  73.5000038  59.6900034  46.4400005  73.9500046  58.7300014
  48.0600023  73.0400038  59.6800041  48.4600019  71.9100046  60.1200008
  48.9200020  73.9400053  59.1700029  48.5800028  74.7200012  58.6300039
  50.3600025  73.7400055  59.1100025  50.6400013  72.8100014  58.6000013
  51.0600042  74.7900057  58.2300043  50.7900047  75.8100033  58.4800005
  50.6200027  74.6200037  57.2500038  52.5700045  74.5600033  58.2100010
  52.7700043  73.6300039  57.6800013  52.9300022  74.5500040  59.2400026
  53.3200026  75.6900024  57.5400019  54.3500042  75.3400040  57.5400019
  53.2100010  76.5500021  58.2200050  52.8500032  76.0000038  56.1200047
  52.8400040  75.2500057  55.4300022  52.3500013  77.1300030  55.6000042
  52.2800016  78.1800032  56.3300037  52.5200033  78.2100058  57.3100042
  51.7700005  78.9300060  55.8800030  51.8300009  77.2100019  54.3700027
  51.5800047  76.3300037  53.9200020  51.5000010  78.0400038  53.9200020
  50.9000015  73.6100054  60.5400038  50.7500029  74.5800018  61.3100052
  51.7900038  72.6300049  60.8700037  51.9000006  71.7900038  60.3100014
  52.5200033  72.7400017  62.1100044  51.8300009  73.1600046  62.8500032
  52.8400040  71.3100052  62.6000023  53.6900043  70.8900023  62.0700026
  52.0900011  70.5500031  62.3800039  53.1600046  71.3000011  64.1200018
  53.3900023  72.3000050  64.4800043  51.8900013  70.9100056  64.8400021
  52.0100021  71.0000038  65.9200048  51.0000038  71.4800024  64.6000051
  51.6200018  69.8900032  64.5600033  54.2500019  70.3000021  64.5500040
  55.1400042  70.5500031  63.9700031  54.4100046  70.2200031  65.6200027
  53.8500023  69.3400049  64.2300034  53.7400007  73.6500025  62.0600033
  54.4300032  73.6600018  61.0300016  54.0100002  74.4000053  63.1000042
  53.3600044  74.3900013  63.8800049  55.1500034  75.3100014  63.1900024
  56.0000038  74.9800014  62.6000023  54.7300005  76.8000031  62.7500010
  55.6400013  77.3900032  62.7100039  54.3500042  76.7700052  61.2400007
  54.1500044  77.7600050  60.8300018  54.9900007  76.1800051  60.6000042
  53.3800030  76.2800026  61.1700010  53.6600018  77.4500036  63.6600018
  53.4800005  78.4600019  63.3100033  52.7300024  76.8600035  63.6400032
  54.0200043  77.5400019  64.6900034  55.7400036  75.3000021  64.6300030
  55.3300047  74.4900036  65.4900026  56.8300009  76.0800028  64.8600054
  57.1800041  76.5500021  64.0400028  57.4900007  76.0800028  66.1700010
  56.7700005  75.6300020  66.8700027  58.7000036  75.0300026  66.3100052
  58.3400011  74.0100050  66.3200045  59.0800047  75.2500057  67.3100042
  59.8200035  75.3600025  65.3000021  60.0300026  76.4100027  65.1300049
  59.4700050  75.0500059  64.3000031  61.1400032  74.5900059  65.5200052
  60.9700012  73.5100031  65.6000042  61.5200043  75.1600027  66.3600016
  62.1600008  74.8900032  64.5600033  62.5000048  75.8300018  64.4400024
  62.6900053  73.9800024  63.6700010  62.2700024  72.7300024  63.6000013
  61.4100027  72.5000048  64.0700054  62.4800014  72.2400045  62.7500010
  63.5100031  74.3900013  62.7600050  63.6800051  75.3800058  62.6500034
  63.8600016  73.7300014  62.0800018  57.7600050  77.5300026  66.6000032
  58.0600023  78.3200026  65.6600046  57.7000046  77.9300022  67.9200029
  57.4200010  76.9700050  68.9700031  58.1400013  76.1800051  69.1700029
  56.4400005  76.5400028  68.8300037  57.3600006  77.7800035  70.2600050
  58.2600021  77.6400042  70.8800030  56.4300013  77.5800037  70.8000040
  57.3400021  79.1600037  69.7700024  57.6800013  79.8700047  70.5200052
  56.3100004  79.4100046  69.5000029  58.1200027  79.2300034  68.4900045
  57.7300024  80.0500011  67.9000044  59.5900011  79.3900061  68.6600018
  60.3100014  78.4200048  68.5700035  59.9400043  80.6100082  69.0600014
  59.2800045  81.3700008  69.2200041  61.3500023  80.9600067  69.3400049
  61.8500042  80.8600044  68.3800030  61.4000034  82.4900055  69.7400045
  60.9700012  83.1000042  68.9300013  62.4600029  82.7500057  69.6900034
  60.7600021  82.8200054  71.1000013  61.3100052  82.3400021  71.9100046
  59.7700024  82.3600006  71.1200047  60.6900024  84.3600082  71.3200045
  61.6900015  85.0200081  71.6800022  59.4900036  84.7500038  71.2200022
  62.0500040  80.1100063  70.4000044  61.4900017  79.5200014  71.3300037
  63.3800030  80.1200008  70.3000021  63.8600016  80.4300022  69.4600010
  64.2500019  79.2800045  71.2100029  64.0000010  78.2100058  71.1500025
  65.7400036  79.3000031  70.7900047  66.0900021  80.3299999  70.8700037
  66.6600037  78.4500027  71.7400026  67.6500034  78.4400034  71.2900019
  66.7100048  78.9100027  72.7200031  66.2900019  77.4300051  71.7200041
  65.8800030  78.7500048  69.3200016  66.8300009  79.1000032  68.9200020
  65.7700014  77.6700020  69.1900015  65.0700045  79.0800047  68.6700010
  64.1600037  79.6900034  72.6600027  64.1800022  78.8400030  73.5400057
  63.8800049  81.0100079  73.0000019  63.9000034  81.7500019  72.3000050
  63.7600040  81.3700008  74.3900013  64.5600033  81.0400009  75.0600052
  63.8200045  82.8700066  74.4200039  63.0500031  83.3500004  73.8100052
  64.7600031  83.2200050  73.9800024  63.7100029  83.4300041  75.9000015
  64.7900009  83.4600067  76.5200043  62.6400042  84.0000057  76.2300014
  62.4500036  80.7200050  74.9300051  62.4500036  80.2200031  76.0400057
  61.4000034  80.6300068  74.1100025  61.4900017  80.9000015  73.1400013
  60.1300049  79.9400043  74.5300055  59.8200035  80.3299999  75.5000019
  59.0100050  80.2600002  73.5700035  59.1500044  80.0100040  72.5200033
  57.6500034  79.6100044  74.0000057  57.6900005  78.5700035  73.6600018
  57.3300028  79.7500038  75.0200033  56.8700027  80.0300026  73.3500051
  58.7000036  81.7800045  73.6200047  59.5400047  82.3799992  73.2700014
  57.8900051  81.9799995  72.9100037  58.3700037  82.0700073  74.6000051
  60.3300047  78.4500027  74.6100044  59.8300028  77.7800035  75.5100060
  61.0200024  77.8300047  73.7200022  61.4400005  78.4400034  73.0300045
  61.2600040  76.3600016  73.6200047  60.3300047  75.7800055  73.6900043
  61.8600035  76.0300016  72.2500038  62.2500038  75.0200033  72.2900057
  62.7500010  76.6300058  72.0500040  60.8300018  76.0900021  71.0900021
  60.7300043  77.1300030  70.8100033  59.8500013  75.9300041  71.5400028
  61.0500050  74.9800014  69.6600056  62.5400019  75.8000040  69.1300011
  63.0000019  75.2700043  68.2800055  62.1900034  76.7900038  68.8700056
  63.2200050  75.7600021  69.9800014  62.1100044  75.8700037  74.8200035
  61.7200041  75.0200033  75.6400013  63.2100010  76.5500021  75.0100040
  63.4000015  77.2900057  74.3600035  64.1100025  76.3600016  76.1600018
  64.1900015  75.2900028  76.3400030  65.5600023  76.7000055  75.8600044
  66.1900043  76.4100027  76.6900015  65.6600046  77.8000021  75.8400059
  66.3100052  75.8500051  74.4300032  63.5500050  76.9200039  77.4700022
  64.2900038  77.0100021  78.4400034  62.3600006  77.4000025  77.5400019
  61.9400024  77.5300026  76.6300058  61.5100050  77.5700045  78.7800026
  62.1000051  77.4200058  79.6800041  61.0100031  79.0300035  78.8600016
  60.1100016  79.1800022  78.2700014  60.7000017  79.3100023  80.3800011
  59.8700047  78.7000036  80.7600021  61.6100025  79.0200043  80.9100056
  60.6200027  80.3600025  80.6800079  61.9400024  80.0200081  78.5700035
  62.0500040  80.0699997  77.6200056  60.2600050  76.6100025  78.9500046
  60.0200033  75.9800053  79.9600029  59.4700050  76.4100027  77.8400040
  59.5300007  76.9300032  76.9800043  58.1800032  75.6400013  77.9600048
  57.6600027  76.0200024  78.8300037  57.3700047  75.9500027  76.7000055
  56.3800049  75.5000019  76.8300056  57.2800016  77.0300055  76.5700054
  57.8900051  75.5200052  75.8500051  58.3800030  74.1800022  78.1800032
  57.5800037  73.4700012  78.7900019  59.5800018  73.7100029  77.9400015
  60.2300024  74.3400049  77.4800014  59.8600006  72.2900057  78.2300043
  58.9800024  71.6800022  78.0300045  61.0300016  71.8300056  77.2800016
  61.0400009  72.3400021  76.3200045  60.8300018  70.7900047  77.0200014
  62.4500036  71.8800020  77.7400017  63.1300020  70.7200050  78.1100035
  62.6000023  69.7800016  78.2300043  64.4700050  70.8100033  78.4900045
  64.9600029  69.9400043  78.8900042  65.1700020  72.0400047  78.5300016
  66.2300014  72.0600033  78.7700033  64.4000053  73.2500029  78.3100033
  64.8900032  74.2000055  78.4000015  63.0400038  73.1800032  77.9700041
  62.5700045  74.1100025  77.7200031  60.2300024  71.9300032  79.7100019
  60.3800011  70.7100010  80.0600052  60.4400015  72.9200029  80.5600071
  60.2600050  73.8500023  80.2200031  60.5400038  72.6700020  82.0400047
  60.5100012  71.5900040  82.1600056  61.9000006  73.1700039  82.6100063
  62.7100039  72.8700018  81.9400024  62.0700026  72.7300024  83.5900021
  61.8900013  74.7200012  82.7300072  62.5500011  75.5700016  81.8400002
  62.3200035  76.8000031  82.3700047  62.7600050  77.7200031  82.0300007
  61.5500021  76.7100048  83.5500050  61.1800051  77.5000048  84.0400028
  61.2100029  75.4100037  83.6800003  60.6100035  75.0100040  84.4799995
  59.3300009  73.2600021  82.7300072  58.7700033  72.5800037  83.5800076
  58.7700033  74.4100046  82.3700047  59.2200041  74.9800014  81.6700077
  57.6400042  75.0500059  83.1000042  57.8000021  75.0000048  84.1900063
  57.7400017  76.5700054  82.8200054  57.5700045  76.7100048  81.7400074
  58.7600040  76.9100046  82.9800034  56.6800022  77.3300028  83.5599995
  56.6000032  77.1400023  84.7800064  55.8200026  78.0600023  82.9600048
  56.2900019  74.4700050  82.6800060  55.2800035  74.6000051  83.4000015
  56.1800003  73.9000034  81.4900017  57.0100021  73.7800026  80.9200001
  55.0000048  73.2700014  80.9100056  54.2300034  73.0700016  81.6499996
  54.3600035  74.0400028  79.7600031  53.4900045  73.4700012  79.4200039
  55.0200033  74.1700029  78.9100027  53.7600040  75.3700018  80.1100063
  53.4500027  76.0900021  79.2000055  53.7700033  75.8900023  81.2700081
  54.1400003  75.3400040  82.0300007  53.5000038  76.8500042  81.2900066
  55.3100014  71.7600012  80.6200027  54.7800016  71.1400032  79.6700048
  56.2900019  71.1400032  81.3500023  56.7100048  71.6800022  82.0800018
  56.9200039  69.8500013  81.1600018  57.4400043  69.7800016  80.2000046
  57.8700018  69.7400045  82.4000072  57.4000025  70.2300024  83.2400036
  58.7200022  70.3800011  82.1500015  58.4100008  68.3500051  82.5300026
  58.8600016  68.0700016  81.5700054  57.5600004  67.7100039  82.7200031
  59.4900036  68.2300043  83.5599995  60.6600046  67.9600048  83.1599998
  59.2700005  68.4800053  84.7900009  55.9600019  68.6800051  81.0500050
  56.2700033  67.6800013  80.3600025  54.8100042  68.8400030  81.6900063
  54.6000004  69.7500038  82.0800018  53.7700033  67.7800035  81.6300011
  54.2600012  66.8100023  81.5100002  52.9800034  67.7500010  83.0000019
  52.3100042  66.8900013  82.9500008  52.3800039  68.6600018  83.0600071
  53.7900019  67.6200008  84.2900085  53.1300020  67.7700043  85.1300049
  54.5200014  68.4200048  84.2900085  54.3800020  66.2800026  84.4099998
  55.5400038  66.2500048  84.8200035  53.7100029  65.2400017  84.2199993
  52.8500032  68.0300045  80.4500008  52.0100021  67.1300030  80.1600075
  52.8200006  69.0800047  79.6300030  53.4700012  69.8200035  79.8700047
  52.1000004  69.1000032  78.3400059  51.5900040  68.1600046  78.2000017
  50.9700012  70.2200031  78.4400034  50.5100012  70.3600025  77.4700022
  49.8200035  69.7700024  79.3300056  49.1400003  70.6200027  79.4300032
  49.3800020  68.8900042  78.8800049  50.3000021  69.6000051  80.2900028
  51.5500021  71.3700056  79.0000057  51.9400024  71.2700033  79.8600054
  52.9200029  69.4000053  77.0300055  52.5200033  68.9500046  75.9500027
  54.0600014  70.1300049  77.1900034  54.2900038  70.5400038  78.0900049
  54.8400021  70.6200027  76.0500050  54.1400003  71.1600018  75.4200029
  55.9100008  71.6600037  76.5500021  56.6000032  71.1000013  77.2000027
  55.3800011  72.4300051  77.1100044  56.9000006  72.1800041  75.4800034
  56.6700029  73.4200048  74.8500013  55.7800007  73.9900017  75.0200033
  57.5400019  73.8800049  73.8800049  57.4500036  74.7900057  73.3100033
  58.7300014  73.2000017  73.6400032  59.4700050  73.5500050  72.9200029
  59.0700006  72.0000029  74.3200016  60.0200033  71.5100050  74.1500044
  58.1400013  71.5300035  75.2700043  58.4200048  70.6400013  75.8100033
  55.4300022  69.5400047  75.1100016  55.6800032  69.7000027  73.9000034
  55.5500031  68.3100033  75.6300020  55.2700043  68.1700039  76.5900040
  56.0300016  67.1100044  74.9900055  56.5100050  67.2500038  74.0100050
  57.0800018  66.4000034  75.9400034  57.4300051  65.5900049  75.2900028
  56.5300035  65.9400034  76.7700052  58.2500029  67.2600031  76.4200020
  59.0300035  66.5600014  76.7500019  58.7900019  68.0500031  75.2300024
  59.5800018  68.7200022  75.5700016  59.1700029  67.2900009  74.5400047
  58.1400013  68.7100029  74.6600056  57.9400015  68.1900024  77.6200056
  57.2300005  69.0100050  77.5000048  57.6500034  67.5700045  78.4700060
  58.8800049  68.6000013  78.0200052  54.8800039  66.1500025  74.6600056
  54.9500036  65.3900051  73.6500025  53.8200045  66.2000036  75.4200029
  53.9300013  66.7400026  76.2800026  52.6700020  65.3400040  75.3000021
  52.9500008  64.3400049  74.9700022  52.0200014  65.1900053  76.6700029
  51.6800022  66.1200047  77.0900059  52.7600002  64.7900009  77.3700047
  50.8400011  64.1900015  76.6800022  51.0800028  63.1800032  76.3400030
  50.0700045  64.4900036  75.9700060  50.0300026  64.1600037  78.0300045
  49.1000032  63.6200047  77.8600025  49.6900034  65.1500034  78.3500051
  50.6800032  63.5900021  79.1800022  50.1400042  63.6700010  80.1200008
  51.6100025  64.1400051  79.3600035  51.1800003  62.1900034  79.0200043
  51.8100023  62.0400047  78.2500029  51.5400028  61.9500017  79.9400043
  50.3600025  61.6200018  78.9000034  51.6800022  65.8900023  74.3000031
  51.1000013  65.0600052  73.6200047  51.6200018  67.2400045  74.0400028
  52.1100044  67.8600025  74.6500015  50.8200026  67.8100014  72.9500055
  49.8400021  67.3400021  72.9200029  50.4900026  69.3200016  73.2700014
  51.4000034  69.9100018  73.3700037  50.0500011  69.2500019  74.2600012
  49.4500017  70.0200033  72.4100018  48.5000038  69.4900036  72.3400021
  49.8900032  70.1700020  71.4200020  49.0800047  71.4000034  73.0900049
  50.0000000  71.9500017  73.3300018  48.4900045  71.2400055  74.0000057
  48.1900024  72.2900057  72.2400045  47.3699999  71.6400051  71.9300032
  48.7100029  72.6100016  71.3400030  47.5300026  73.3900023  73.0100012
  46.6600037  73.7200022  72.6500034  47.2200012  73.0700016  73.9000034
  48.1700039  74.1700029  73.0500031  51.3300037  67.6300049  71.5200043
  50.5400038  67.6200008  70.5400038  52.6400042  67.3900032  71.3800049
  53.2300043  67.3200035  72.1900034  53.2700014  67.0900011  70.1100016
  52.9200029  67.7500010  69.3200016  54.7900009  67.3100042  70.3000021
  55.1200008  66.6600037  71.1200047  55.1100016  68.2900047  70.6300020
  55.6900024  66.8900013  69.1100025  55.8300018  67.7800035  68.0100012
  55.4100037  68.7800026  68.0600023  56.6800022  67.4700022  66.8900013
  56.9800043  68.2600021  66.2100029  57.4100018  66.2600040  66.8800020
  58.2000017  65.9200048  65.8100033  58.4500027  66.7300034  65.3700018
  57.2200012  65.3000021  67.9500055  57.7900028  64.3700027  67.9100037
  56.3900042  65.6700039  69.0800047  56.2600040  64.9300051  69.8400021
  52.9700041  65.6600046  69.6700048  52.6300049  65.3700018  68.5400009
  52.8400040  64.6900034  70.6400013  53.2000017  64.9500036  71.5500021
  52.4700022  63.2300043  70.4800034  53.2300043  62.7800035  69.8500013
  52.5000048  62.5100040  71.8100023  51.8400002  63.0100012  72.5400019
  53.5600042  62.5300026  72.0600033  52.1600008  61.0100031  71.8000031
  51.1100006  60.8100033  71.5900040  52.9200029  60.2200031  70.8200026
  52.6800013  59.1700029  71.0000038  52.7000046  60.4300022  69.7800016
  53.9900017  60.1700020  71.0400057  52.4000025  60.4500008  73.2500029
  51.7800045  61.1100006  73.8600016  52.1600008  59.4000006  73.3600044
  53.4000015  60.7000017  73.6100054  51.1000013  63.1200027  69.8300028
  50.8200026  62.3400021  68.9700031  50.1700020  64.0400028  70.1900053
  50.5000019  64.6700048  70.9100056  48.7800026  64.1500044  69.7200012
  48.3100033  63.1600046  69.6300030  47.9800034  65.0600052  70.6900024
  48.6100006  65.4800034  71.4800024  47.3699999  64.4300032  71.3400030
  47.0200014  66.1800051  70.1500034  45.7900000  65.8700037  69.5100021
  45.5300045  64.8500013  69.3100023  44.8500013  66.9000053  69.2200041
  43.9000034  66.6600037  68.7800026  45.2200031  68.2800055  69.3300056
  44.3800020  69.3000031  69.0000010  44.8000002  70.1000023  69.3400049
  46.5300035  68.5500050  69.8000050  46.8500042  69.5800018  69.9200010
  47.3800039  67.5200033  70.1900053  48.3400011  67.8600025  70.5600023
  48.7700033  64.7800016  68.3700037  48.0000019  64.3700027  67.4500036
  49.5500040  65.8600044  68.0900049  50.0100040  66.3800049  68.8100052
  49.7100019  66.5200043  66.8000031  48.7000036  66.7900038  66.5000010
  50.5100012  67.8100014  66.8700027  50.6900024  68.0000019  65.8100033
  51.4800024  67.5900030  67.3500013  49.8000002  68.9800024  67.5200033
  50.5200005  69.7700024  67.6800013  49.4700003  68.6000013  68.4900045
  48.6200047  69.5400047  66.7600012  48.3700037  70.7600021  66.9700050
  47.9800034  68.9400053  65.8400011  50.2400017  65.6100035  65.7200050
  49.8400021  65.8200026  64.5600033  51.0900021  64.7000027  66.0700035
  51.3600016  64.5800018  67.0400047  51.4900017  63.5800028  65.2500010
  51.8600035  64.0400028  64.3300009  52.6600027  62.8100014  65.9200048
  52.5500011  62.7100039  67.0000029  52.9100037  61.4600039  65.2400017
  52.9700041  61.5800047  64.1600037  53.8300037  61.0300016  65.6400013
  52.1700048  60.7100010  65.5300045  53.9200020  63.7000036  65.8600044
  53.7000036  64.7100019  66.1800051  54.3800020  63.7300014  64.8700047
  55.0600004  63.2800007  66.8500042  54.7900009  63.4100008  67.9000044
  55.2300024  62.2000027  66.8100023  55.9900045  63.7700033  66.5600014
  50.3600025  62.6700020  65.0300026  49.8200035  62.6500034  63.9300013
  49.8100042  62.0700026  66.1000013  50.2100039  62.3100042  66.9900036
  48.9100027  60.9600019  66.0100031  49.3600035  60.0200033  65.6700039
  48.4300041  60.7000017  67.4400043  47.9400015  61.5400028  67.9500055
  47.7800035  59.8300028  67.4100018  49.3100023  60.4600048  68.0400038
  47.6700020  61.2200022  65.1300049  47.3000002  60.4100037  64.3700027
  47.1700001  62.4900007  65.1600027  47.5900030  63.0600023  65.8700037
  45.9000015  62.8700018  64.4000053  45.2400017  62.0100021  64.5200014
  45.3500032  64.1500044  64.9500036  45.1999998  63.9000034  66.0100031
  44.3900013  64.3800020  64.4800043  46.2700033  65.3600025  64.8900032
  46.2500000  65.9200048  63.9500046  47.2800016  65.0400019  65.1000023
  45.8800030  66.3000011  66.0500050  46.6500044  67.0400047  66.2000036
  45.8400011  65.6800032  66.9500017  44.6500015  67.0300055  65.7700014
  43.8500023  66.4900017  66.0800028  44.3100023  68.1700039  65.1900053
  45.2500010  69.0500021  64.7900009  46.2100029  68.8100052  65.0000048
  45.0600004  70.0000048  64.5400047  43.0500031  68.5400009  65.0000048
  42.4100018  67.7700043  65.0100040  42.7800035  69.5000029  64.8500013
  46.1199999  63.0600023  62.8500032  45.2900028  62.7400017  62.0600033
  47.3500013  63.4800053  62.4600029  48.0500031  63.6400032  63.1700039
  47.6700020  63.6200047  60.9800053  46.8300009  64.0600014  60.4600048
  48.9000034  64.4700050  60.8100033  49.3100023  64.3800020  59.8000050
  49.7000027  64.2200041  61.4900017  48.6500025  65.9400034  61.0700035
  48.2000017  66.1400032  62.0500040  47.9300022  66.3500023  60.3500032
  49.9300003  66.7600012  61.0000038  50.4400015  66.7000055  60.0400019
  50.5900002  66.4100027  61.8000031  49.7200012  68.2000017  61.2700033
  49.7100019  68.6600018  60.3700018  49.2100000  68.8200045  62.3300028
  49.0400028  68.2900047  63.4800053  49.3900013  67.3700047  63.7400007
  48.5500002  68.7400055  64.2400026  48.8400030  70.0900030  62.2200012
  49.0000010  70.6400013  61.4000034  48.4300041  70.5500031  63.0200052
  47.9500008  62.2400045  60.3000021  47.8800011  62.0300007  59.0600014
  48.2500029  61.2700033  61.2100029  48.2400036  61.5600014  62.1700048
  48.9100027  59.9300051  60.9000015  48.7800026  59.6700048  59.8500013
  50.3800011  60.0500011  61.3100052  50.9000015  59.1100025  61.1400032
  50.4100037  60.2900028  62.3600006  51.1300039  61.2200022  60.6400013
  51.1400032  61.3400030  59.2500019  51.7900038  62.5100040  58.9800024
  51.9800043  62.9100037  57.9900026  52.1800041  63.0600023  60.1200008
  52.6500034  63.9500046  60.2200031  51.7300034  62.3000050  61.1800051
  51.8900013  62.5400019  62.2200012  48.1800032  58.8600016  61.6200018
  48.7200022  58.1400013  62.4800014  46.9400024  58.5400009  61.1800051
  46.2400007  59.1300011  60.0200033  46.9000006  59.1400051  59.1400051
  46.0400009  60.2000046  60.1700020  44.9000025  58.4000015  59.7200012
  45.0700045  57.4600029  59.2100048  44.0700006  58.9100027  59.2200041
  44.6200037  58.0400038  61.1500025  43.9000034  57.2100019  61.1600018
  44.1900015  58.8600016  61.7200041  45.9800005  57.6600027  61.8000031
  45.9000015  58.0100012  62.8300047  46.3400030  56.1500025  61.7900038
  45.4900026  55.3700018  62.2500038  47.4900007  55.6900024  61.2900019
  48.0800009  56.4100027  60.8900023  48.0100012  54.3000031  61.3100052
  47.5600004  53.6400032  62.0500040  47.7400017  53.5600042  59.9700022
  47.9900026  52.5000048  60.1200008  48.4200001  53.8500023  59.1900015
  46.3200045  53.6500025  59.4200039  45.8800030  54.8100042  58.6800051
  46.7000008  55.4500008  58.3800030  44.6400023  54.9600029  58.0900049
  44.5000029  55.8500004  57.5200033  43.6500025  53.9900017  58.2700014
  42.4100018  54.1400003  57.7000046  41.8300009  53.3900023  57.8200006
  43.9900017  52.8500032  59.0600014  43.2200003  52.1400023  59.3200016
  45.3400040  52.6700020  59.5900011  45.5800009  51.8400002  60.2500010
  49.5400047  54.2100048  61.5900040  50.0600004  53.1100035  61.4800024
  50.1700020  55.3100014  62.0800018  49.6700001  56.1900043  62.0500040
  51.5400028  55.3600025  62.5500011  52.1800041  55.0700045  61.7300034
  51.9300032  56.8200016  62.9500008  51.3700008  57.2200012  63.7900019
  51.7900038  57.5000048  62.1200037  53.4200048  57.1600008  63.3600044
  54.3200016  56.2500048  63.9000034  54.2000008  55.1800013  63.9700031
  55.6300020  56.8300009  64.2500019  56.4500046  56.1800003  64.5000029
  55.9400034  58.1600046  64.1300011  56.9700050  58.3600044  64.3900013
  54.9000025  59.1300011  63.7600040  55.0700045  60.1900005  63.7100029
  53.7000036  58.5500050  63.3200026  52.8800011  59.2300034  63.1300020
  51.5600014  54.3800020  63.6500025  50.6900024  54.3600035  64.5300007
  52.5300026  53.4800005  63.6900043  53.1800032  53.4900045  62.9200029
  52.6800013  52.3000002  64.5100021  51.8100023  51.6500044  64.4700050
  53.8500023  51.5200043  63.9600039  54.7400045  52.1500015  64.0200043
  53.8100004  51.2700033  62.9000044  54.2000008  50.2300024  64.6400023
  53.2700014  49.1500044  64.6200037  52.3500013  49.2900038  64.0700054
  53.6600018  47.8600025  64.9500036  52.9300022  47.0800018  64.7300053
  55.0000048  47.6600027  65.4100037  55.4900026  46.3800001  65.4200029
  56.4600039  46.4000034  65.4800034  55.9200048  48.6900043  65.6100035
  56.9500017  48.6200047  65.9000015  55.4900026  50.0100040  65.2100039
  56.1800003  50.8400011  65.2100039  52.8500032  52.7600002  65.9900045
  53.8700008  53.3100033  66.3900042  51.8000031  52.5000048  66.7500019
  51.0500002  51.9400024  66.3400030  51.7200041  52.9900026  68.1600046
  51.4600039  54.0500021  68.0700016  50.4500008  52.2800016  68.8000011
  49.7100019  52.3600006  68.0000019  50.6000042  51.2300014  69.0400028
  50.1700020  52.8200006  69.7000027  52.9800034  52.7400017  69.0500021
  53.4100008  53.6900043  69.7300053  53.5500002  51.4900017  69.0000010
  53.1000042  50.3400040  68.1800032  53.7300014  50.3600025  67.2900009
  52.0400047  50.3000021  67.9400015  53.6100006  49.1700029  69.0400028
  53.8000011  48.2900000  68.4200048  52.7600002  49.0100002  69.7100019
  54.9100018  49.6600008  69.6000051  55.7300043  49.6000004  68.8800049
  55.1800013  49.0300035  70.4500055  54.6900034  51.1300039  69.9000025
  54.4500017  51.1600018  70.9600019  55.9700012  51.8900013  69.4600010
  56.9600010  52.0200014  70.2200031  56.0300016  52.4600029  68.2900047
  55.1200008  52.4900007  67.8500032  57.0600033  53.4000015  67.8300047
  57.9600048  53.0500031  68.3100033  57.3200035  53.3600044  66.2800026
  56.4600039  53.7600040  65.7500029  57.4100018  52.3100042  65.9800053
  58.6000013  54.1500044  65.8100033  59.4300032  54.0900040  66.5100050
  58.4200048  55.2200031  65.6900024  59.1100025  53.5600042  64.4200039
  59.3000031  54.3600035  63.4600019  59.2700005  52.3300028  64.2300034
  56.8500042  54.8000050  68.3200026  57.6800013  55.5900049  68.6900043
  55.6400013  55.2000046  68.1400013  55.0100040  54.5000029  67.7600050
  55.1100016  56.5700006  68.4700012  55.8100033  57.2400045  67.9700041
  53.7100029  56.7200041  67.8800011  53.0600023  56.0300016  68.4100056
  53.8000011  56.4400005  66.8300009  53.1300020  58.1100035  68.0400038
  52.9700041  58.3500051  69.0900040  54.0100002  59.1500044  67.3800039
  54.1500044  58.9300013  66.3100052  53.4700012  60.0900030  67.5200033
  54.9700022  59.2000008  67.8800011  51.7400026  58.1600046  67.2300053
  51.7600012  58.1900024  66.1400032  51.0900021  57.3200035  67.4900055
  51.2300014  59.0900040  67.4900055  55.1400042  56.8300009  69.9700022
  55.4000044  57.9500008  70.4000044  54.9900007  55.8400011  70.7800055
  54.6700048  54.9400043  70.4300022  55.2300024  55.8800030  72.2900057
  54.5000029  56.5800047  72.7000046  55.1200008  54.5100021  72.9300022
  55.7100010  53.7900019  72.3800039  54.0700006  54.2000008  72.7900028
  55.3600025  54.2700005  74.4000053  56.3900042  54.5700026  74.5100021
  54.3200016  55.0300026  75.3100014  53.3500004  54.6400023  74.9900055
  54.3800020  54.7100019  76.3500023  54.3000031  56.1000013  75.1500034
  55.1800013  52.7900028  74.7400045  54.1600037  52.4800014  74.5300055
  55.9300041  52.1700048  74.2300034  55.3900003  52.6600027  75.7900047
  56.6500044  56.4200020  72.6400042  56.8000031  57.2000027  73.5900021
  57.7200031  56.0500050  71.9200039  57.6800013  55.4600048  71.1100054
  59.1300011  56.3700008  72.2100019  59.2100048  56.4300013  73.2900047
  60.0400019  55.2800035  71.8100023  60.9800053  55.7500029  71.5100050
  59.6700048  54.8700047  70.8600044  60.2000046  54.1600037  72.7800035
  59.1500044  53.2400036  73.0700016  58.1900024  53.2300043  72.5600052
  59.3000031  52.3500013  74.1300058  58.4900045  51.6800022  74.3300056
  60.4400015  52.2400045  74.9100018  60.6000042  51.4200020  75.6000042
  61.4500046  53.2300043  74.6800041  62.2400045  53.2900047  75.4100037
  61.3300037  54.1600037  73.5600042  62.0500040  54.9500036  73.4500027
  59.4200039  57.7500010  71.6600037  60.3400040  58.4600019  72.0500040
  58.6300039  58.1100035  70.6300020  58.0600023  57.4300051  70.1400042
  58.9500046  59.3800020  69.8000050  59.9800014  59.3300009  69.4400024
  58.0300045  59.2100048  68.5700035  57.0100021  59.5200014  68.7800026
  58.0500031  58.1700039  68.2700014  58.5400009  59.9800014  67.4200010
  58.2900047  61.3700008  67.3100042  57.6700020  61.9300032  67.9900026
  58.6300039  62.0500040  66.0500050  58.3300018  63.0700016  65.8200026
  59.5000029  61.4100027  65.2000046  60.0100040  61.8400049  64.3500042
  59.8000050  60.0500011  65.4500008  60.3700018  59.4300032  64.7800016
  59.2800045  59.3100023  66.5300035  59.5000029  58.2800007  66.7800045
  58.6300039  60.6200027  70.5700016  59.2200041  61.7100048  70.3100014
  57.9000044  60.5100012  71.6900015  57.4400043  59.6300030  71.7300034
  57.7300024  61.5700006  72.6700020  57.6900005  62.5200033  72.1400023
  56.3900042  61.3500023  73.4500027  56.4500046  60.7500029  74.3600035
  55.8600044  62.3000050  73.5300016  55.6800032  60.8100033  72.8100014
  58.9800024  61.8100023  73.5800028  59.3800020  62.9900026  73.6600018
  59.6000051  60.7200050  74.1700029  59.1900015  59.8100042  74.0500021
  60.8500051  60.9000015  74.9000025  60.6600046  61.7000008  75.6100035
  61.0600042  59.6300030  75.7600021  61.1700010  58.7100029  75.1800013
  60.0900030  59.4800043  76.2300014  62.2300053  59.9100018  76.7100048
  62.1600008  60.8900023  77.1900034  63.2000017  59.8200035  76.2000036
  62.2500038  58.9000034  77.8400040  61.3800049  58.8900042  78.4900045
  63.0300045  59.3600035  78.4500027  62.5500011  57.4800014  77.3300028
  63.5200024  57.5100040  76.8300056  61.7400026  57.1400023  76.6800022
  62.4800014  56.4400005  78.3800030  62.8000021  55.6100035  77.9100037
  63.0800009  56.6100025  79.1900015  61.5700006  56.1100006  78.6700058
  61.9500017  61.3400030  73.8900042  62.7300024  62.2300053  74.2200041
  61.9500017  60.7600021  72.7400017  61.2300014  60.0900030  72.5600052
  62.8700018  61.1200047  71.6300011  63.9400053  61.0400009  71.8900013
  62.6400042  60.2400017  70.4100037  63.1600046  60.7300043  69.5800018
  61.5800047  60.3800011  70.1600027  63.2100010  58.8400030  70.4200029
  62.7900028  58.3800030  71.3200045  64.2800045  58.8000011  70.6400013
  62.8500032  58.1500006  69.1100025  61.7700052  58.0900049  68.9600039
  63.2200050  57.1200037  69.1700029  63.4600019  58.7400007  68.0000019
  64.2700052  59.3100023  68.2200050  63.1500053  58.6700010  66.7200041
  62.2700024  57.8000021  66.2700033  61.6900015  57.3500013  66.9700050
  62.2800016  57.6500034  65.2700043  63.8400030  59.3600035  65.8300018
  64.6400023  59.8800039  66.1400032  63.5600042  59.3700027  64.8600054
  62.7900028  62.6000023  71.2000036  63.8100052  63.2500029  70.9300041
  61.6100025  63.1400013  71.2000036  60.8000040  62.5600052  71.3200045
  61.4500046  64.5900011  71.0000038  62.1900034  64.9100018  70.2600050
  60.0300026  64.8900032  70.5800056  59.2800045  64.3500042  71.1700010
  60.0400019  64.3700027  69.6200037  59.6800041  66.4000034  70.4600048
  60.0300026  67.0700026  69.3200016  60.5100012  66.6000032  68.4700012
  59.4000006  68.2600021  69.0200043  59.5100021  68.7200022  68.0500031
  58.6100006  68.9000034  70.0500011  58.3600044  70.2400017  69.8800039
  57.9400015  70.6800032  70.6200027  58.3900023  68.2700014  71.3000011
  57.8600025  68.8400030  72.0500040  58.9000034  66.9900036  71.5000057
  58.5500050  66.4200020  72.3600054  61.7200041  65.4500008  72.2400045
  62.2800016  66.5500021  72.0000029  61.4300013  64.9200010  73.4300041
  61.0200024  64.0100050  73.4500027  61.7700052  65.6200027  74.7100019
  61.3400030  66.6200018  74.6600056  61.1600018  64.8800039  75.9000015
  61.5800047  63.8700008  75.9300041  60.0900030  64.8600054  75.7100058
  61.4600039  65.6000042  77.2500038  61.2500048  66.6600037  77.1000051
  62.5200033  65.5700016  77.5200033  60.6200027  65.0700045  78.4100056
  60.7200050  63.9900017  78.4900045  59.5800018  65.3300047  78.2000017
  61.0300016  65.7600021  79.7500038  60.8800030  66.8300009  79.5500040
  62.0800018  65.4800034  79.8000050  60.2700043  65.2700043  81.0200024
  60.3900051  64.2700052  81.1800003  60.5300045  65.7300043  81.8900013
  59.2800045  65.4400015  80.9300041  63.2900047  65.7400036  74.8600054
  63.8000011  66.8500042  75.1600027  64.0300035  64.7000027  74.6900034
  63.4900045  63.8600016  74.5200014  65.4700041  64.6900034  74.6600056
  65.8500051  64.9300051  75.6500053  65.8100033  63.2800007  74.2200041
  65.6900024  63.1000042  73.1500053  66.8800020  63.1100035  74.3300056
  65.2700043  62.5800037  74.8500013  66.2700033  65.6800032  73.7500048
  67.4700022  65.8300018  73.9500046  65.5900049  66.3900042  72.8300047
  64.6700048  66.0900021  72.5600052  66.2100029  67.3800039  71.9300032
  67.1700048  67.0500040  71.5100050  65.2600050  67.6000023  70.8100033
  64.3100023  68.0000019  71.1400032  65.7500029  68.2000017  70.0400019
  65.0100040  66.6300011  70.3800011  66.5500021  68.6300039  72.6800013
  67.6800013  69.0900040  72.5700045  65.6100035  68.9900017  73.5500050
  64.8600054  68.3300018  73.7100029  65.6800032  70.2200031  74.3600035
  66.1800051  71.0100031  73.8100052  64.2700052  70.5500031  74.8700047
  64.3500042  71.4700031  75.4500055  63.9600039  69.7500038  75.5400038
  63.2700014  70.6600046  73.7200022  62.9900026  71.9400024  73.2700014
  63.5300016  72.7600050  73.7000036  62.1200037  72.1300030  72.1800041
  61.8100023  73.1200027  71.8500042  61.6100025  71.0000038  71.5400028
  60.9300041  71.1300039  70.7200050  61.8500042  69.7500038  72.0600033
  61.2500048  68.9100027  71.7400026  62.7100039  69.5600033  73.1100035
  62.9100037  68.5800028  73.5200024  66.7000055  69.9300051  75.5300045
  67.6800013  70.7000017  75.6100035  66.4900017  68.8600016  76.3000059
  65.5900049  68.4300041  76.2900019  67.4400043  68.4000015  77.3700047
  67.3200035  69.1100025  78.1800032  67.1000051  66.9900036  77.8500032
  67.5400019  66.2800026  77.1300030  67.5900030  66.8000031  79.2700052
  67.0000029  66.0000038  79.7000027  68.6400032  66.5000010  79.3300056
  67.3700047  67.6800013  79.8600054  65.6600046  66.8900013  77.8000021
  65.4400015  65.9700012  78.0000019  68.9300013  68.4100056  76.9600058
  69.7800016  68.5800028  77.8200054  69.2200041  68.2500029  75.6900024
  68.5100031  68.1400013  74.9900055  70.5900049  68.0900049  75.2000046
  71.2000036  67.7200031  76.0300016  70.6200027  67.1100044  73.9900017
  70.0800037  67.5900030  73.1700039  70.2700043  66.1000013  74.1900015
  72.0800018  66.8300009  73.5800028  72.6200056  66.6300011  74.5000029
  72.5200033  67.7400017  73.1900024  72.1300030  65.7700014  72.5000048
  71.7400026  64.6300030  72.7500057  72.7100039  66.0700035  71.4100027
  71.2200022  69.4700050  74.9100018  72.4900055  69.5800018  74.8300028
  70.3600025  70.4300022  74.6100044  69.3700027  70.2200031  74.6000051
  70.8600044  71.5100050  73.7900019  71.9400024  71.5600014  73.6300039
  70.1600027  71.5500021  72.4300051  70.4400015  72.4500036  71.8900013
  69.0900040  71.5000057  72.6200056  70.7000017  70.2500010  71.2800026
  70.5300045  72.8700018  74.4100046  71.0700035  73.9000034  73.9800024
  69.6000051  72.9600048  75.3700018  69.2200041  72.0700026  75.6400013
  68.9900017  74.2200041  75.8000040  68.9200020  74.8800039  74.9500036
  67.5300026  74.0100050  76.3300037  67.4100018  74.7900057  77.0700026
  67.5900030  73.0900049  76.9100046  66.2300014  73.9800024  75.0100040
  69.9100018  74.8700047  76.7800045  69.8400021  76.0900021  76.8800020
  70.8000040  74.2100048  77.5500059  70.8600044  73.2000017  77.4500036
  71.7100048  74.8400021  78.4500027  71.3600016  75.8700037  78.5200024
  71.5800047  74.3500042  79.9100018  72.5200033  74.5100021  80.4400063
  71.4800024  73.2600021  79.7800016  70.2600050  74.8200035  80.4400063
  69.5000029  74.6800041  79.6700048  70.3100014  75.9100056  80.5900002
  69.8000050  74.1400051  81.7500019  69.9900055  72.9400015  81.8900013
  69.1600037  74.8500013  82.6700020  69.2500019  75.8500051  82.7200031
  68.7700033  74.3800020  83.4800053  73.1500053  75.0900030  77.9300022
  73.9900017  75.4700041  78.7400055  73.4100056  74.8500013  76.6900015
  72.6200056  74.5600033  76.1400032  74.7100019  75.1000023  76.0600042
  75.4900026  74.8900032  76.7900038  74.6200037  74.1000032  74.9200058
  73.7600040  74.2000055  74.2600012  75.5200052  74.2400026  74.3000031
  74.6900034  73.0800056  75.2900028  74.8600054  76.5400028  75.5300045
  73.9500046  77.3800039  75.4700041  76.1500025  76.8100023  75.1000023
  76.8100023  76.0700035  75.3100014  76.6000032  77.9100037  74.2400026
  76.0500050  78.8200045  74.4600058  78.1500053  78.1700039  74.3500042
  78.6800051  77.2700024  74.0500021  78.4000015  79.0700054  73.7700033
  78.4000015  78.3100033  75.4000044  76.3300037  77.7300024  72.7600050
  75.9200048  78.6600018  72.0900011  76.3600016  76.4300013  72.3000050
  76.6400051  75.7100058  72.9400015  75.9800053  76.0000038  70.9700012
  76.2000036  76.7500019  70.2000046  76.9200039  74.7900057  70.6000042
  76.6100025  74.3700027  69.6400023  76.7200041  74.0400028  71.3500023
  78.4500027  75.1200056  70.5100012  79.1700029  74.2200041  70.9200048
  78.9200020  76.1900043  70.0200033  74.4900036  75.7100058  70.7600021
  74.0700054  74.7400045  70.0800037  73.6500025  76.3700056  71.5700054
  74.0300035  77.0800018  72.1600056  72.1400023  76.0900021  71.7000055
  72.0900011  75.1000023  72.1400023  71.5000057  77.1400023  72.6500034
  71.6600037  78.1200027  72.1900034  72.0700026  77.1200037  73.5700035
  69.9600029  77.1700048  73.0200052  69.8100042  76.1900043  73.4900045
  69.3500042  77.3000050  72.1200037  69.5200014  78.1000042  74.1600037
  70.2400017  78.1100035  74.9800014  68.5400009  77.7700043  74.5000029
  69.5900011  79.5400047  73.7000036  68.7700033  79.7100019  73.0100012
  70.5500031  79.6700048  73.2100058  69.6300030  80.5400085  74.8000050
  70.3800011  80.2600002  75.4100037  69.5400047  81.5200043  74.5700026
  68.8600016  80.3700066  75.4300022  71.4000034  76.0000038  70.3000021
  70.7300043  75.0100040  70.0300026  71.6600037  76.9700050  69.4100046
  72.2500038  77.7200031  69.7300053  71.1900043  77.0400047  68.0300045
  70.1100016  76.9100046  68.0300045  71.5100050  78.4600019  67.6100016
  71.1400032  79.2300034  68.2800055  72.5900030  78.6100054  67.5600052
  71.0100031  78.6000061  66.6400051  71.7500019  76.0800028  67.0000029
  70.9700012  75.5300045  66.1900043  73.0800056  75.8300018  67.1200037
  73.6800051  76.2900019  67.7900028  73.8000011  74.8300028  66.3700008
  73.5800028  75.0000048  65.3200054  75.2300024  75.0400019  66.6000032
  75.3900051  75.0600052  67.6700020  75.8300018  74.2700052  66.1100054
  75.5300045  76.0300016  66.2600040  73.3100033  73.3600044  66.7800045
  73.4800053  72.3600054  66.0900021  72.7500057  73.2100058  67.9600048
  72.8900051  73.9300013  68.6600018  72.3400021  71.9600058  68.5800028
  72.8000021  71.1300039  68.0600023  72.8900051  71.9900036  69.9900055
  72.3400021  72.7200031  70.5700016  73.9400053  72.2500038  69.9000025
  72.7900028  70.4800034  70.9300041  70.8700037  71.7100048  68.3900023
  70.5400038  70.6500053  67.8700018  70.0100040  72.6400042  68.7700033
  70.3400040  73.6000013  68.9100027  68.5600042  72.3200035  68.8800049
  68.5300016  71.2900019  69.2500019  67.9100037  73.3700037  69.7100019
  68.0100012  74.3300056  69.2100048  68.4400034  73.4500027  70.6700039
  66.4000034  73.0800056  69.9400043  65.8300018  73.4000015  69.0700054
  66.1300039  71.6400051  70.4600048  66.7600012  71.5800047  71.3500023
  65.1400042  71.4900017  70.8900023  66.3100052  70.9000015  69.6800041
  65.8100033  73.8700056  71.1400032  66.4400053  73.5600042  71.9700050
  65.8300018  74.9600029  71.1000013  64.7800016  73.6100054  71.3800049
  67.8400040  72.1700048  67.5100040  67.2500038  71.1600018  67.2800016
  67.9800034  73.1100035  66.6200018  68.5600042  73.9300013  66.7200041
  67.1700048  73.2300043  65.4300022  66.1100054  73.1600046  65.6600046
  67.2900009  74.7000027  64.8000050  66.7200041  74.7200012  63.8700008
  68.2900047  74.8000050  64.3800020  66.9600010  75.8300018  65.7700014
  67.2700024  75.5600023  66.7800045  67.7200031  77.1500015  65.4300022
  67.6000023  77.9100037  66.2000036  68.8000011  77.0200014  65.3900051
  67.2800016  77.6500034  64.5600033  65.4900026  76.2800026  65.9000015
  64.7900009  75.4600048  66.0700035  65.2500010  77.0500040  66.6300011
  65.2100039  76.6300058  64.9000025  67.3800039  72.0600033  64.4100046
  66.3400030  71.6100025  63.8300037  68.5900021  71.4900017  64.2100048
  69.8600054  72.2100019  64.3400049  70.2900028  72.1400023  65.3500032
  69.9200010  73.2800055  64.1000032  70.7500029  71.5600014  63.3500051
  71.8000031  71.8100023  63.5400009  70.6400013  71.8700027  62.3200035
  70.3000021  70.1000023  63.3100033  70.6400013  69.5100021  64.1700029
  70.5000019  69.5600033  62.3900032  68.8200045  70.2300024  63.4600019
  68.4400034  70.4800034  62.4700022  68.1300020  68.9300013  63.9800024
  67.6500034  68.1000042  63.2400036  67.9600048  68.8700056  65.2400017
  68.2500029  69.6500015  65.8200026  67.3100042  67.7300024  65.8700037
  67.7400017  66.7800045  65.5300045  67.4700022  67.6700020  67.4400043
  67.0500040  66.7200041  67.7500010  66.9000053  68.4400034  67.9700041
  68.9000034  67.7300024  67.9500055  69.5000029  68.6100054  67.7500010
  69.3600035  66.8600035  67.5100040  68.8700056  67.4200010  69.4900036
  68.1500053  66.6400051  69.7500038  68.5500050  68.3400011  69.9500036
  70.3300047  67.1600056  69.9400043  70.4100037  67.0900011  71.0200024
  71.0700035  67.8800011  69.6100044  70.8100033  65.9000015  69.3700027
  71.7300034  65.7200050  69.7500038  70.0800037  65.2100039  69.4500017
  70.9800053  65.9800053  68.3700037  65.8600044  67.7900028  65.4000044
  65.2300024  66.7600012  65.0000048  65.2000046  68.9300013  65.4800034
  65.7100010  69.6900034  65.9000015  63.8100052  69.2100048  65.2900028
  63.2300043  68.4500027  65.8300018  63.4700012  70.5700016  65.8500051
  62.4300051  70.5700016  65.5700016  64.0200043  71.3700056  65.3500032
  63.4700012  70.6800032  67.4400043  64.4800043  70.4200029  67.7500010
  63.0900049  72.1100044  67.8000021  63.6300039  72.8900051  67.2400045
  62.0500040  72.3100042  67.5300026  63.3100033  72.2600031  68.8500023
  62.6500034  69.6500015  68.2700014  62.1800041  70.0600052  69.1700029
  61.8000031  69.3600035  67.6700020  63.2100010  68.7900019  68.6400032
  63.3300018  69.1200018  63.8000011  62.3900032  68.4200048  63.4100008
  64.2400026  69.6400023  62.9600048  64.9800014  70.2000046  63.3500051
  64.1500044  69.3400049  61.4900017  63.1000042  69.5200014  61.2300014
  64.9500036  70.3000021  60.6000042  65.0000048  70.0100040  59.5500040
  66.0200024  70.3500032  60.8300018  64.5700026  71.7600012  60.7100010
  63.5100031  72.1500015  61.2500048  65.4200029  72.6000023  60.2300024
  64.3300009  67.8900051  61.0800028  63.8300037  67.5600052  60.0200033
  64.9400043  67.0400047  61.8800020  65.1800013  67.3200035  62.8100014
  65.0500011  65.6200027  61.6400051  64.9300051  65.5100012  60.5600023
  66.4100027  65.1600027  62.1900034  66.3900042  65.1300049  63.2900047
  67.1100044  65.9200048  61.8700027  67.0300055  63.8100052  61.7100048
  66.3200045  63.0100012  61.8900013  67.9400015  63.4800053  62.2100019
  67.3400021  63.8000011  60.1800013  66.4200020  63.6800051  59.3100023
  68.5400009  63.8700008  59.8400021  63.8400030  64.8100042  62.1500015
  63.6600018  63.6400032  61.7900038  63.0500031  65.4100037  63.0600023
  63.2800007  66.3200045  63.4200048  61.8800020  64.6600008  63.6400032
  62.0700026  63.5900021  63.4900045  61.8700027  64.8400021  65.2100039
  60.8900023  64.5500040  65.6200027  61.9000006  65.9100008  65.3400040
  62.9600048  64.2000008  66.0700035  63.9100027  64.3100023  65.5700016
  63.1700039  64.8200035  67.4000025  62.3100042  64.5900011  68.0300045
  64.1200018  64.5200014  67.8400040  63.2000017  65.9000015  67.3200035
  62.6700020  62.7100039  66.2600040  62.3500013  62.2200012  65.3500032
  63.5700035  62.2500038  66.6800022  61.8400049  62.6400042  66.9700050
  60.6100035  65.0300026  62.9100037  59.7700024  64.2000008  62.7200031
  60.5700016  66.3100052  62.4300051  61.4200020  66.8400049  62.4900007
  59.5800018  66.7500019  61.4800024  58.6200047  66.6800022  61.9800043
  60.0200033  68.1500053  61.1500025  61.0900021  68.3700037  61.0700035
  59.8300028  68.6800051  62.0800018  59.2100048  68.8700056  60.0100040
  58.1900024  69.0600014  60.3300047  59.0900040  68.2500029  59.1200018
  60.0400019  70.0900030  59.6800041  60.4600048  70.4900026  60.6100035
  59.4200039  70.9200048  59.3200016  61.1700010  69.7100019  58.7500048
  61.1000013  68.7600040  58.4200048  61.9500017  70.3900051  58.0000019
  62.0100021  71.6900015  58.0600023  61.4400005  72.2200012  58.7100029
  62.7000046  72.1300030  57.4700022  62.7700043  69.7800016  57.1800041
  62.8000021  68.7700033  57.1700048  63.5400009  70.2700043  56.7300034
  59.6200037  65.9200048  60.1500034  58.5600042  65.5600023  59.6200037
  60.8500051  65.6100035  59.6600008  61.6800022  65.9100008  60.1400042
  60.9500027  64.8100042  58.4500027  60.1700020  65.2000046  57.7900028
  62.3200035  65.0400019  57.7700043  62.3400021  64.3000031  56.9700050
  63.1500053  64.8000050  58.4300041  62.5500011  66.4500046  57.1900034
  61.8500042  67.3500013  57.5600004  63.5200024  66.6000032  56.3300037
  60.5900049  63.3200026  58.6900043  60.0300026  62.6900053  57.7700043
  60.7300043  62.8300047  59.9300051  61.3100052  63.3700037  60.5700016
  60.6700039  61.3600016  60.2500010  61.1000013  60.8400011  59.4000006
  61.4500046  61.0800028  61.5300035  60.9800053  61.6300011  62.3600006
  62.4300051  61.5300035  61.3700008  61.4500046  59.6000051  61.8500042
  61.8500042  59.1000032  60.9600019  60.4500008  59.2800045  62.1400023
  62.3400021  59.2200041  63.0200052  61.9900036  58.2100010  63.6400032
  63.3800030  59.8500013  63.2900047  59.2000008  60.9100008  60.4300022
  58.8200045  59.8400021  59.9200010  58.3600044  61.7500019  61.0700035
  58.8000011  62.5700045  61.4500046  56.9400024  61.5500021  61.4400005
  56.6500044  62.4900007  61.9200039  57.0500040  60.7800007  62.2100019
  56.0300016  61.1500025  60.2600050  55.3200006  60.1500034  60.2500010
  56.0200024  62.0700026  59.3300009  56.4600039  62.9700041  59.4900036
  55.2700043  61.9000006  58.1000042  54.2600012  61.6300011  58.4200048
  55.1800013  63.2400036  57.2800016  54.6100044  63.9500046  57.8800011
  54.6700048  63.0800009  56.3300037  56.5100050  63.9200020  57.0000029
  57.1000004  63.3000040  56.3200045  57.0800018  64.0200043  57.9300022
  56.3000011  65.2800035  56.3200045  55.6100035  65.9700012  56.8200016
  55.8100033  65.0300026  55.3800011  57.5600004  65.9800053  55.8800030
  58.0700016  65.5200052  55.0400019  58.2400036  66.1000013  56.7300034
  57.1400023  67.3000050  55.4700041  57.9400015  67.8500032  55.1900005
  56.5100050  67.2300053  54.6900034  56.5900040  67.7700043  56.1700010
  55.7800007  60.7900047  57.1600008  55.0500011  60.2300024  56.3700008
  57.0000029  60.3200006  57.3400021  57.5600004  60.8500051  57.9900026
  57.4900007  59.0400028  56.7300034  57.1400023  58.9400005  55.7000017
  59.0200043  59.0900040  56.5500021  59.3600035  59.9100018  55.9200048
  59.4500017  59.2900038  57.5400019  59.4300032  58.1400013  56.2100029
  57.0000029  57.8300047  57.4700022  56.4300013  56.8300009  57.0200014
  57.2200012  57.8400040  58.7900019  57.6800013  58.6500025  59.1600037
  56.9400024  56.7100048  59.7100019  57.4100018  55.7700014  59.4200039
  57.4400043  57.0800018  61.1400032  56.9600010  56.3300037  61.7700052
  57.0700026  58.0700016  61.4000034  58.8200045  56.9200039  61.1700010
  59.1300011  57.0200014  62.0700026  55.4600048  56.4000034  59.7700024
  55.1100016  55.2100039  59.6900034  54.5800018  57.4500036  59.5900011
  54.9400043  58.3900023  59.5600033  53.2400036  57.2500038  59.1300011
  52.6600027  56.9100046  59.9900007  52.7500010  58.6600018  58.6900043
  53.3600044  59.0100050  57.8600025  53.0600023  59.2900038  59.5200014
  51.3500023  58.6600018  58.4600019  51.0500002  59.5700026  58.5400009
  53.0600023  56.1800003  58.0600023  52.4400043  55.1200008  58.2300043
  53.6300039  56.4300013  56.9100046  53.9800024  57.3600006  56.7600012
  53.6100006  55.6600046  55.6600046  52.5600004  55.5300045  55.3900003
  54.1700029  56.5900040  54.6100044  53.5900021  57.5000048  54.4700003
  55.2300024  56.8400049  54.7500038  54.0900040  56.1000013  53.6500025
  54.4400024  54.3300009  55.7500029  54.1100025  53.4300041  54.9500036
  55.3300047  54.0600014  56.7400026  55.6600046  54.9100018  57.1800041
  56.1100006  52.8700018  56.9800043  56.4800024  52.4500036  56.0500050
  57.3000050  53.1600046  57.9000044  56.8200016  53.2300043  58.8700008
  57.7200031  54.0900040  57.5200033  58.4300041  52.0900011  57.8300047
  58.9300013  52.1000004  56.8500042  57.9700041  51.1200047  57.9900026
  59.5200014  52.2900009  58.9100027  60.2600050  51.5500021  58.6300039
  59.0500021  52.1000004  59.8700047  60.2700043  53.6700010  58.9400005
  59.6200037  54.4900036  59.2400026  60.5800009  53.7600040  57.9100037
  61.4300013  53.5900021  59.8500013  62.0400047  52.8500032  59.5100021
  62.0700026  54.3700027  59.8000050  61.1200047  53.3600044  60.7800007
  55.2100039  51.7000008  57.4700022  55.3700018  50.5900002  57.0100021
  54.2600012  52.0500040  58.3500051  54.3300009  53.0400038  58.5600042
  53.2000017  51.2100029  58.8600016  53.6800003  50.2200031  58.8900042
  52.8200006  51.7100048  60.2800035  52.2100019  52.6200008  60.1700020
  53.7400007  51.8300009  60.8600044  52.0000029  50.6400013  60.9500027
  51.0200024  50.6100035  60.4500008  51.9200039  50.9500027  61.9800043
  52.6200008  49.2500019  60.9100008  53.8400030  49.0100002  60.7900047
  51.9700003  48.1800032  61.1000013  50.9600019  48.2300043  61.2100029
  52.5000048  47.3500013  61.3500023  51.8900013  51.2000036  57.9700041
  51.2400007  50.1400042  57.7600050  51.5800047  52.2600031  57.2300005
  52.0000029  53.1200027  57.5400019  50.5600023  52.2400045  56.1500025
  49.6300030  51.8600035  56.5800047  50.2400017  53.6800003  55.7600021
  51.0800028  54.1000032  55.2100039  50.0800037  54.2800045  56.6600037
  48.9600039  53.9600039  55.0100040  49.1600037  53.4400034  54.0600014
  48.8400030  55.0200033  54.8500013  47.7200031  53.4100008  55.7000017
  47.9600000  53.3700037  56.7500019  47.6400042  52.3700047  55.3700018
  46.5100002  54.0900040  55.3500032  46.5400028  55.0600004  55.6200027
  45.3500032  53.7200022  54.8100042  45.0200033  52.4800014  54.6400023
  45.6900024  51.9100046  55.1400042  44.0900040  52.1200037  54.4800043
  44.4000006  54.5300007  54.6000004  44.6300030  55.5200005  54.6600008
  43.5700035  54.1800022  54.1600037  50.8700037  51.4200020  54.9300003
  50.0000000  50.7500029  54.4500017  52.2000027  51.3900042  54.5500040
  52.8100014  52.1000004  54.9300003  52.6500034  50.3100014  53.7100029
  52.0200014  50.4100037  52.8300047  54.0900040  50.5500031  53.1000042
  54.8100042  50.3400040  53.9000034  54.2800045  51.5600014  52.7500010
  54.5400047  49.5700026  52.0200014  54.2100048  48.5700035  52.3000002
  53.8400030  49.8900032  50.7200003  54.0600014  49.1400003  49.9600029
  52.7700043  50.0700045  50.7900047  53.9600039  50.9300041  50.4400015
  56.1100006  49.7400045  51.8600035  56.4800024  49.1500044  51.0200024
  56.2800026  50.8200026  51.7400026  56.6000032  49.3600035  52.7500010
  52.4000025  48.8500023  54.1700029  51.9600010  47.9600000  53.4700012
  52.6400042  48.6100006  55.4500008  52.9600048  49.3900013  56.0200024
  52.4200010  47.2900009  56.1200047  52.9800034  46.5700006  55.5300045
  53.1900024  47.1300030  57.4400043  52.8300047  46.1500025  57.7700043
  53.0100012  47.9200029  58.1700039  54.7000027  47.0600033  57.2100019
  54.9900007  47.9800034  56.6900015  55.0300026  46.1700010  56.6600037
  55.3100014  47.0600033  58.6500025  55.1800013  46.1000013  59.1400051
  55.1100016  47.9400015  59.2500019  56.8000031  47.0800018  58.4200048
  56.9900036  46.1900043  57.8200006  57.3200035  47.0300007  59.3700027
  57.2400045  48.3800030  57.8300047  58.2500029  48.4800005  57.7800035
  56.9400024  48.5300016  56.8700027  56.9600010  49.1200018  58.4600019
  50.9300041  46.9300032  56.2100029  50.6300020  45.8000040  55.8200026
  50.0600004  47.8400040  56.5600014  50.3000021  48.7200022  56.9900036
  48.7000036  47.5600004  56.6200018  48.6100006  46.5900040  57.1000004
  48.0200005  48.5900021  57.5700045  46.9700003  48.2900000  57.6100016
  48.0800009  49.5800018  57.1100044  48.7500000  48.7400007  59.2400026
  48.0300045  47.5800037  55.3300047  47.0000029  46.8800020  55.1300049
  48.5800028  48.2500029  54.2800045  49.3800020  48.8500023  54.4100046
  48.1300020  47.9700041  52.9200029  47.0500040  48.0200005  52.9100037
  48.8000011  49.0100002  51.9900036  49.8800039  48.8900042  52.0200014
  48.4400034  48.8400030  50.9700012  48.5800028  50.0200033  52.3600006
  48.5500002  46.4800024  52.5300026  47.7300024  45.8000040  51.9700003
  49.7100019  45.9700012  52.9500008  50.2800035  46.6300011  53.4600019
  50.1800013  44.6100044  52.8800011  50.0500011  44.3400002  51.8300009
  51.6900015  44.3800020  53.1600046  52.0500040  43.4700012  52.6900005
  51.9400024  44.2900038  54.2200041  52.5200033  45.3000021  52.5600004
  52.1600008  46.1500025  52.8400040  49.3800020  43.5200024  53.6600018
  49.8000002  42.3600006  53.6200047  48.3000040  43.8400030  54.3900013
  48.0400038  44.8200035  54.4000006  47.4200010  42.9500008  55.2100039
  47.7000046  41.9200039  54.9800014  47.7100039  43.1700039  56.7000008
  47.0600033  42.5699997  57.3400021  47.6400042  44.2400026  56.8800020
  49.1300011  42.7500010  57.1400023  49.9100018  43.1700039  56.5200043
  49.4000006  43.0100012  58.6800051  50.4300022  42.7200031  58.8600016
  49.1500044  44.0200043  59.0100050  48.6400032  42.3900032  59.1500044
  49.1900015  41.2100029  57.1400023  49.3500042  40.8700037  56.1100006
  50.0400019  40.7900000  57.6900005  48.2300043  40.8100033  57.4800014
  45.9900045  43.1000042  54.8200035  45.3100014  42.0900011  54.5300007
  45.5400038  44.3700027  54.8500013  46.2300014  45.1000023  54.9000025
  44.1100025  44.7200012  54.6900034  43.5500002  43.8800001  55.1200008
  43.6800003  46.0000038  55.4200029  42.6400042  46.1700010  55.1800013
  44.2200041  46.8200016  54.9400043  43.8500023  45.9100008  56.9600010
  44.7000027  45.2900028  57.2500038  42.9900026  45.3700018  57.3500013
  43.9100027  47.2100019  57.6200008  43.9600039  48.2100010  56.9000006
  43.8700008  47.2000027  58.9400005  43.8100004  46.2900019  59.3600035
  43.7000036  48.0600023  59.4500017  43.6700010  44.7500038  53.2100010
  42.4900007  44.5800018  52.9100037  44.6000004  44.8800039  52.2600031
  45.5800009  45.0000000  52.4900007  44.2600012  45.0100040  50.8300018
  43.2100010  44.8300028  50.6000042  44.3800020  46.5500021  50.4300022
  45.4400015  46.7400026  50.6500006  43.7600040  47.1100044  51.1200047
  43.8800001  46.9000006  49.0000010  42.9100037  46.4600039  48.7800026
  44.6000004  46.4700031  48.3100033  43.8400030  48.4200001  48.9900017
  44.7700024  48.7300014  49.4400024  42.9100037  48.6900043  49.4800043
  43.7000036  48.9900017  47.5600004  43.1100035  48.3500004  46.9099998
  44.7399998  49.0600014  47.2100019  43.0700016  50.3400040  47.7600002
  43.3300018  51.0000038  47.0500040  42.0800018  50.2700043  47.9300022
  43.4800005  50.8400011  48.5300016  45.0000000  44.1400003  49.8200035
  44.4200039  43.5800028  48.8700008  46.3400030  43.9700031  50.0000000
  46.8000031  44.2799997  50.8300018  47.2400045  43.2000017  49.0900040
  46.6900015  43.1300020  48.1600046  48.5600042  44.0500021  48.8600016
  49.2800045  43.3200026  48.5000038  48.7900019  44.5600033  49.8000002
  48.4400034  45.0800037  47.7700043  48.7700033  44.6300030  46.4600039
  49.1300011  43.6300039  46.2600040  48.5600042  45.5200005  45.4000044
  48.6500025  45.1600027  44.3800020  48.2500029  46.9099998  45.5200005
  48.3100033  47.6000023  44.7000027  47.9100037  47.3400021  46.8300009
  47.5400019  48.3500004  46.9600010  48.0000019  46.4500046  47.9200029
  47.8200006  46.8600035  48.8900042  47.4200010  41.7400026  49.4500017
  48.1800032  41.0700035  48.7400007  46.7900038  41.2900019  50.4800034
  46.2400007  41.9300032  51.0200024  46.7600012  39.7700024  50.7900047
  47.0400000  39.1900015  49.9100018  45.7800007  39.4400024  51.1500025
  47.8900003  39.3600011  51.7700005  49.0100002  39.8100019  51.5800047
  47.7000046  38.4000015  52.7200031  46.8300009  37.8900027  52.7600002
  48.6900043  38.1700015  53.8300037  49.0500021  39.1700029  54.0900040
  48.1600046  37.5100017  55.1000023  47.1800041  37.9400015  55.3200006
  48.8800001  37.6600027  55.9000015  47.8400040  36.0500026  54.9000025
  48.7000036  35.4600024  54.5900011  47.1900034  35.9400010  54.0200043
  47.1000004  35.4700017  56.0800028  47.7400017  34.6900010  56.8200016
  45.9100008  35.7400012  56.1800003  49.9800014  37.4600029  53.3200026
  51.0400009  37.5800014  53.8700008  49.9500036  36.8000007  52.1600008
  49.0500021  36.7400026  51.6800022  51.2000036  36.2900019  51.5500021
  51.6500044  35.7100010  52.3500013  50.8300018  35.3600025  50.4100037
  50.3700018  35.9400010  49.5900011  50.0900030  34.6200013  50.7100010
  52.0300007  34.4900012  49.9400043  52.5800037  34.0000010  50.7300043
  52.7600002  35.1900005  49.5300007  51.6400003  33.4400010  48.8700008
  50.9000015  32.7600026  49.3200016  52.4700022  32.8200006  48.5400009
  51.0400009  34.0100026  47.6800013  50.0300026  33.9600015  47.5300026
  51.7300034  34.2900014  46.5500021  53.0200005  34.3900013  46.4800024
  53.5800028  34.3800020  47.3200035  53.4500027  34.7600007  45.6400013
  51.0500002  34.4500017  45.4500008  50.0400019  34.5300007  45.4900026
  51.4700031  34.5600009  44.5400000  52.1600008  37.4600029  51.2800026
  53.3700037  37.2900009  51.4500046  51.6300011  38.7300014  51.1200047
  50.6300020  38.8300014  51.0600042  52.5600004  39.8900008  50.9300041
  53.1600046  39.7000027  50.0400019  51.7800045  41.1600018  50.5600023
  52.4600029  42.0200014  50.6000042  51.4000034  41.1000013  49.5400047
  50.9800005  41.3000011  51.2800026  53.4400034  40.0800037  52.1300030
  54.6100044  40.3100014  52.0100021  52.7200031  40.1300001  53.2500029
  51.7200041  39.9700022  53.2200003  53.3200026  40.3900003  54.5500040
  54.0800047  41.1600018  54.3800020  52.3400021  40.8599997  55.6200027
  51.6300011  40.0400019  55.7700014  51.8400002  41.7100000  55.1700020
  52.9500008  41.3700008  56.8700027  52.9800034  42.7800035  57.0400047
  52.7200031  43.4600019  56.2500048  53.6000013  43.3400011  58.2100010
  53.4800005  44.3800020  58.4400034  54.1800022  42.4800014  59.1500044
  54.7600031  42.9000044  59.9600029  54.1200018  41.1000013  59.0100050
  54.4800043  40.4300022  59.7700024  53.3400011  40.5500031  57.9900026
  53.2200003  39.4700027  57.9700041  54.2200041  39.2500019  55.1000023
  55.3500032  39.5000029  55.5600023  53.7800026  37.9700017  54.9900007
  52.8700018  37.7500010  54.6100044  54.6500015  36.8400025  55.3800011
  54.8300028  36.8600011  56.4500046  53.8400030  35.5500007  55.2400017
  54.5600033  34.7300005  55.2500010  53.4000015  35.5600023  54.2400026
  52.6800013  35.3300023  56.1700010  52.0300007  36.2000012  56.2100029
  53.1900024  35.1200008  57.1100044  51.8300009  34.1000009  55.7000017
  52.5000048  33.2600021  55.5900049  51.3500023  34.4000006  54.7600031
  50.8100033  33.7200022  56.8000031  50.1800013  34.6000028  56.9600010
  51.3700008  33.5400009  57.7100039  50.0900030  32.5300026  56.3200045
  50.6300020  31.7300010  56.6500044  49.1800022  32.5100017  56.7700005
  49.9500036  32.4800014  55.3300047  55.9500027  36.7300010  54.5800018
  56.9700050  36.3800025  55.1600027  55.9000015  37.0700026  53.2700014
  54.9600029  37.2200012  52.9400015  56.9800043  36.9500017  52.3000002
  57.5500011  36.0200024  52.4300003  56.5100050  36.8300009  50.8700037
  55.7500029  37.5900006  50.6600046  57.3900032  36.9800019  50.2300024
  56.0800028  35.8400011  50.7200003  58.0000019  38.1200027  52.7200031
  59.1400051  37.8200006  52.7800035  57.4900007  39.2800021  53.0800009
  56.4800024  39.2100024  53.0700016  58.2700014  40.4200029  53.6000013
  59.0900040  40.6800032  52.9300022  57.3300028  41.6300011  53.7800026
  56.3900042  41.3600016  54.2600012  57.1000004  42.0400000  52.8000021
  58.0100012  42.7400017  54.5200014  58.6500025  43.7600040  53.9400005
  58.7700033  44.0100002  52.8900003  59.2200041  44.4500017  55.0000048
  59.8500013  45.2300024  54.8400021  58.7600040  44.0600014  56.2400007
  58.9400005  44.5400000  57.5000048  59.6700048  45.3400040  57.5900030
  58.3000040  43.9300013  58.6000013  58.3700037  44.2799997  59.6100044
  57.4300051  42.8700018  58.3800030  57.0600033  42.3900032  59.2700005
  57.2900009  42.3500013  57.0800018  56.7400026  41.4400005  56.9300032
  57.9600048  42.9900026  55.9800005  58.9300013  40.0500011  54.9900007
  60.1000023  40.2200031  55.2500010  58.1800032  39.3200016  55.8200026
  57.2000027  39.3500018  55.6000042  58.6000013  38.9500022  57.1400023
  58.9900017  39.8100019  57.6900005  57.4300051  38.4700012  57.9500008
  57.7800035  38.3800030  58.9800024  56.6400003  39.2100024  58.0200005
  57.1100044  37.5100017  57.5300026  59.7300005  37.8100014  57.0400047
  60.7800007  37.8900027  57.6500034  59.4500017  36.7700028  56.2000036
  58.5100031  36.7700028  55.8600044  60.4500008  35.8000016  55.7400036
  60.5600023  35.0300026  56.5000010  59.9200010  34.9300027  54.5200014
  59.2900038  35.5500007  53.8800049  61.0500050  34.3800020  53.6900043
  61.5800047  35.2100015  53.2200003  61.7600012  33.7300014  54.2100048
  60.5900049  33.7600017  52.9300022  58.9800024  33.7500024  54.9600029
  58.1900024  34.1500020  55.6000042  58.4500027  33.3000016  54.1300011
  59.5000029  32.9500008  55.5000019  61.8100023  36.4700007  55.3800011
  62.8400040  35.9700012  55.8700037  61.8000031  37.5800014  54.6000004
  60.9100008  37.9000020  54.2500019  63.0100012  38.2200027  54.1200018
  63.7300014  37.4000025  54.0500021  62.8400040  38.8800025  52.7300024
  63.7800026  39.2600012  52.3400021  62.3200035  38.1000018  52.1600008
  62.0300007  39.6000028  52.7900028  63.7100029  39.1500020  55.1000023
  64.8500013  38.8700008  55.4500008  63.0100012  40.1700020  55.6800032
  62.0100021  40.1999998  55.4800034  63.6100054  41.0900021  56.7700005
  64.4000053  41.6600037  56.2600040  62.6000023  42.1200037  57.2500038
  61.7600012  41.5400028  57.6100016  62.2200012  42.6300001  56.3600016
  63.0600023  43.0900002  58.3600044  63.7800026  43.8300037  58.0300045
  63.6000013  42.5100040  59.1200018  61.9300032  43.8500023  58.9800024
  61.1000013  43.1400013  58.9600039  61.6600037  44.7500038  58.4300041
  62.4300051  44.2300034  60.4100037  62.4400043  43.5900021  61.1800051
  62.6300049  45.4400015  60.9200048  62.6500034  46.4600039  60.1000023
  62.4200010  46.3800001  59.1200018  62.7900028  47.3500013  60.5600023
  62.9700041  45.6100035  62.1700048  63.1000042  44.8400021  62.8100014
  63.2300043  46.5500021  62.4500036  64.1500044  40.3000021  57.9700041
  65.3100014  40.5400038  58.3600044  63.4400034  39.3400025  58.4400034
  62.6600027  38.9200020  57.9600048  63.9100027  38.4100008  59.5300007
  64.3900013  39.1000009  60.2200031  62.7800035  37.5300026  60.1500034
  63.1600046  36.9000006  60.9700012  62.3300028  36.8800020  59.4100046
  61.5700006  38.3200026  60.6800032  61.3300037  38.9900017  59.8500013
  60.5900049  37.3500013  61.2200022  59.9800014  36.8000007  60.5100012
  61.1700010  36.6600013  61.8400049  60.0000048  37.7700019  62.0300007
  61.9700050  39.3800020  61.7900038  62.7800035  40.0200033  61.4500046
  61.0400009  39.9300027  61.9900036  62.2200012  38.8100028  62.6800013
  65.1100016  37.5800014  59.0300035  66.1400032  37.6300025  59.7200012
  65.0000048  36.7300010  57.9800034  64.1000032  36.6500020  57.5200033
  66.1000013  35.8900023  57.6000023  66.4500046  35.3700018  58.5000038
  65.7000017  34.8200011  56.5000010  66.4800024  34.0800023  56.6100025
  65.7200050  35.1600027  55.4500008  64.4600010  34.1900015  56.7300034
  63.7400007  34.7900009  56.5200043  67.4100018  36.5600014  57.1300030
  68.4900045  36.1100006  57.6600027  67.3300028  37.6400018  56.3500023
  66.4100027  37.9700017  56.1300039  68.4100056  38.4500027  55.9900045
  69.1400051  37.9100013  55.3900003  67.8600025  39.5800018  55.0400019
  67.2100019  40.2100039  55.6400013  67.3600054  39.1400027  54.1800022
  69.0100050  40.3600025  54.3000031  69.5800018  39.6500015  53.6900043
  69.7300053  40.7300043  55.0200033  68.5200024  41.5000010  53.4100008
  68.0700016  42.5300026  53.9600039  68.6600018  41.4800024  52.0800018
  69.2500019  40.7300043  51.7700005  68.5100031  42.3699999  51.6300011
  69.1500044  39.0000010  57.1800041  70.3400040  38.7900019  57.2200012
  68.4600019  39.4200015  58.2800007  67.5300026  39.7500014  58.1400013
  69.1400051  39.8900008  59.5400047  70.1400042  40.2200031  59.2400026
  68.3600044  41.0300016  60.1100016  68.8300037  41.3700008  61.0300016
  67.3500013  40.6700039  60.3100014  68.3200026  42.3100042  59.2100048
  67.9400015  42.0300007  58.2400036  69.3000031  42.8000021  59.0700006
  67.2700024  43.2600021  59.8300028  67.6200008  43.4200001  60.8500051
  66.2800026  42.8100014  59.9100018  67.1000051  44.5300007  59.0100050
  67.1100044  44.3700027  58.0100012  67.0200014  45.7800007  59.4500017
  66.6700029  46.0800028  60.6500006  66.7700052  45.4800034  61.4600039
  66.7600012  47.0600033  60.8600044  67.1600056  46.7000008  58.5800028
  67.4800014  46.3400030  57.6900005  66.8700027  47.6400042  58.8200045
  69.5100021  38.8400030  60.5200052  70.4900026  39.0300012  61.2700033
  68.9100027  37.6700020  60.4800034  68.1000042  37.6400018  59.8800039
  69.1300011  36.4700007  61.2500048  69.8700047  36.6900015  62.0300007
  67.8200054  36.0500026  61.9500017  68.1100035  35.3900027  62.7600050
  67.2000027  35.5800009  61.2000036  66.9300032  37.1100020  62.7500010
  67.5600052  38.1600022  63.4700012  68.6400032  38.1300020  63.4100008
  66.8100023  39.1400027  64.2000008  67.3200035  39.8800015  64.7800016
  65.4200029  38.8900018  64.3600035  64.9200010  39.4700027  65.1200008
  64.8200035  37.7400017  63.8200045  63.8400030  37.3500013  64.0600014
  65.5800009  36.8900013  62.9800034  65.0100040  36.2000012  62.3800039
  69.6300030  35.1900005  60.4400015  68.9800024  34.1700006  60.5100012
  70.6300020  35.2700019  59.6400023  71.4100027  36.4000010  59.2100048
  71.7400026  37.1100020  59.9800014  71.0000038  36.9700027  58.3800030
  72.7100039  35.7900023  58.6500025  73.4000015  35.5600023  59.4600010
  73.1400013  36.5500021  58.0000019  72.1800041  34.6600008  57.8600025
  72.9600048  33.9200020  57.7200031  71.7500019  35.0800014  56.9400024
  71.0200024  34.1900015  58.7200022  70.2400017  33.9700007  57.9900026
  71.4200020  32.8800011  59.3700027  71.5500021  31.8500018  58.6700010
  71.5500021  32.8400016  60.7200050  71.2800026  33.6500025  61.2600040
  71.9400024  31.5900016  61.4200020  72.5000048  30.9400010  60.7400036
  72.8000021  31.8300009  62.6900053  72.9600048  30.8800006  63.2100010
  72.3100042  32.4900007  63.4000015  74.1600037  32.4800014  62.4500036
  74.0800047  33.4400010  61.9600010  74.8600054  31.8300009  61.9200039
  74.8900032  32.6800013  63.7900019  75.0500059  31.7500019  64.3300009
  74.2500019  33.3000016  64.4300032  76.3200045  33.1500006  63.7300014
  76.8300056  32.4300027  63.0900049  76.6700029  33.0500007  64.7600031
  76.4700031  34.5600009  63.1700039  76.2900019  34.5500016  62.1800041
  75.8100033  35.2000022  63.5900021  77.3800039  34.9700022  63.3300018
  70.6700039  30.7600021  61.6400051  70.8700037  29.5400023  61.8700027
  69.5100021  31.4000010  61.6400051  69.4500017  32.3400021  61.2600040
  68.2800055  30.7700014  61.9700050  68.4600019  30.1700020  62.8700018
  67.2000027  31.8500018  62.2400045  67.5700045  32.4700022  63.0600023
  67.0300055  32.5300026  61.4000034  66.2200022  31.4600015  62.5200033
  67.8800011  29.7900009  60.8700037  68.0900049  30.1700020  59.7400045
  67.3200035  28.6700010  61.2000036  67.2900009  28.4800005  62.1900034
  66.5900040  27.7300024  60.1900005  67.0000029  27.9200006  59.2000008
  66.8700027  26.2400007  60.4700041  66.5900040  25.6100011  59.6200037
  66.4000034  25.9000015  61.3900042  68.3700037  25.9300017  60.6000042
  68.8600016  26.7600012  61.1000013  68.8400030  26.0000014  59.6200037
  68.6200047  24.5700002  61.2000036  68.4800053  23.4900022  60.6200027
  69.0700054  24.6300006  62.4000025  65.0600052  27.9500008  60.1400042
  64.4500017  28.3700013  61.0900021  64.4300032  27.5900006  58.9900017
  64.9200010  27.1300006  58.2500029  63.1300020  28.1100011  58.6200047
  63.2500029  29.1700006  58.3700037  62.7800035  27.5600004  57.2300005
  62.4900007  26.5100002  57.3200035  63.6800051  27.4600005  56.6300011
  61.6600037  28.2200003  56.5100050  61.6700029  29.6500015  56.1600018
  62.4900007  30.2000022  56.6000032  60.7000017  30.2700019  55.3500032
  60.8000040  31.2900019  54.9900007  59.6700048  29.4600010  54.9600029
  58.8700008  29.9100018  54.3900013  59.6200037  28.0700016  55.2500010
  58.8100004  27.4900007  54.8100042  60.6900024  27.4700022  55.9200048
  60.6500006  26.4400005  56.2500048  61.9500017  27.8100014  59.5200014
  60.9500027  28.6100006  59.5600033  62.0200014  26.8400002  60.4300022
  62.7200031  26.1200023  60.3400040  60.8800030  26.6200018  61.3900042
  59.9600029  26.6900015  60.8300018  60.9400034  25.2000022  62.0200014
  61.8600035  25.1400018  62.6000023  60.0900030  24.9600005  62.6600027
  60.9400034  24.4600010  61.2200022  60.8000040  27.7000022  62.5100040
  59.7000027  28.1900024  62.7700043  61.9000006  28.0200005  63.1000042
  62.7200031  27.8400016  62.5400019  62.0200014  29.1300011  64.0200043
  61.4400005  28.8900018  64.9100018  63.4500027  29.2100024  64.4400024
  64.0700054  29.8500013  63.8100052  63.8700008  28.2100010  64.4800043
  63.6700010  29.8500013  65.8100033  63.0000019  30.7200003  65.9100008
  64.7200012  30.1300025  65.9100008  63.2700014  28.8400006  66.9400024
  63.9900017  27.8500009  66.9900036  62.1200037  28.8600016  67.4200010
  61.5700006  30.4400015  63.3200026  60.6900024  31.1900020  63.7900019
  62.1400023  30.6300020  62.1000051  62.8100014  29.9500012  61.7800045
  61.7300034  31.7700005  61.2600040  62.0800018  32.7000022  61.7200041
  62.3900032  31.7700005  59.8500013  61.9800043  30.9000015  59.3400049
  61.9200039  33.0700016  59.1700029  62.5600052  33.2900023  58.3100033
  60.9100008  32.9600024  58.7600040  61.9300032  33.9500022  59.8100042
  63.9200020  31.7300010  59.9500036  64.3100023  30.7800007  60.3100014
  64.4200039  31.9400024  59.0100050  64.2400026  32.4000025  60.7500029
  60.2800035  31.8800020  61.0900021  59.7400045  32.9800010  61.2300014
  59.6400023  30.7400012  60.8200026  60.2000046  29.9000025  60.7300043
  58.1900024  30.6900024  60.6100035  57.8000021  31.3900018  59.8800039
  57.8600025  29.2700005  60.2900028  56.7800045  29.0900016  60.3400040
  58.3700037  28.6400008  61.0100031  58.3000040  28.9400005  59.0000010
  59.2600012  28.8400006  58.9200020  57.3500013  31.1200023  61.8300009
  56.3500023  31.8300009  61.6600037  57.8200006  30.8300018  63.0800009
  58.6900043  30.3100014  63.1200027  57.1800041  31.2400007  64.3300009
  56.1700010  30.8400011  64.4400024  58.0300045  30.5600023  65.4900026
  58.9800024  31.0700011  65.6500053  58.4300041  29.6000004  65.1900053
  57.3200035  30.5000019  66.8700027  57.7500010  29.7100019  67.4900055
  56.2800026  30.1700020  66.7900038  57.2300005  31.7400026  67.7700043
  56.6300011  32.4800014  67.2300053  58.2400036  32.0800018  67.9800034
  56.5800047  31.4600015  69.0800047  56.7400026  32.2700024  69.8100042
  56.9500017  30.5500007  69.5600033  55.0800037  31.3800025  68.9100027
  54.8000050  30.6100011  68.3300018  54.6600008  31.4200020  69.8300028
  54.8600006  32.3000026  68.5300016  57.1800041  32.7400017  64.4200039
  56.1400032  33.3900023  64.6900034  58.3000040  33.3200026  64.0500021
  59.0400028  32.7800012  63.6400032  58.4100008  34.7400022  64.0000010
  58.1000042  35.1500010  64.9700022  59.8500013  35.1700020  63.8500023
  59.9700022  36.2300014  64.0300035  60.2000046  34.8700023  62.8700018
  60.8700037  34.4700027  64.7500038  60.8400011  33.3900023  64.7000027
  62.3600006  34.8700023  64.4300032  62.4900007  34.6600008  63.3700037
  62.4700022  35.9400010  64.6200037  63.0600023  34.3200016  65.0600052
  60.6400013  34.7800016  66.2600040  59.6600008  34.4400024  66.5700054
  61.4600039  34.3200016  66.8100023  60.6300020  35.8700013  66.2800026
  57.5700045  35.4100013  62.9200029  56.8600035  36.3700008  63.1700039
  57.6600027  34.8400021  61.6600037  58.2800007  34.0600014  61.4800024
  56.7100048  35.3000021  60.6100035  56.9500017  36.3100028  60.2400017
  56.8300009  34.4200015  59.3500042  56.6600037  33.3900023  59.6500015
  55.8600044  34.7300005  58.2500029  55.7000017  35.7900023  58.0900049
  56.0000038  34.2700005  57.2700024  54.9000025  34.3100023  58.5700035
  58.2100010  34.5900011  58.7000036  58.3900023  35.6500006  58.4700012
  59.0900040  34.2700005  59.2700005  58.3300018  33.9800024  57.8000021
  55.2800035  35.3500009  61.0800028  54.6300030  36.3900018  60.9800053
  54.7900009  34.2000008  61.5400028  55.4400015  33.5700011  61.9800043
  53.3800030  34.1100025  61.9100046  52.7300024  34.3100023  61.0600042
  52.9500008  32.6500010  62.1700048  51.9900036  32.7100015  62.6700020
  52.7900028  31.8500018  60.9200048  52.3000002  30.9000015  61.0800028
  52.1800041  32.3900008  60.2000046  53.7700033  31.6100025  60.4800034
  53.8300037  31.9200015  62.9600048  54.5400047  31.5900016  62.4200010
  52.9300022  34.9300027  63.0400038  51.7500019  35.3500009  62.9800034
  53.7000036  35.1300025  64.1000032  54.5600033  34.6000028  64.1700029
  53.3200026  35.9800029  65.2200031  52.2500038  35.9200025  65.4100037
  54.0400028  35.5900025  66.5800047  53.7500048  36.3100028  67.3500013
  55.0800037  35.8400011  66.4300013  54.0100002  34.1900015  67.2000027
  54.5400047  34.0400004  68.3100033  53.1900024  33.3600020  66.7700052
  53.4900045  37.5000024  65.0000048  52.5600004  38.2100010  65.4100037
  54.5400047  37.9600024  64.2400026  55.1600027  37.2300029  63.9100027
  54.6600008  39.3200016  63.7900019  54.5800018  40.0200033  64.6200037
  56.0100031  39.3200016  62.9600048  55.8400011  38.7100029  62.0800018
  56.7900038  38.9600015  63.6200047  56.4600039  40.7400036  62.4700022
  55.6200027  41.2200022  61.9800043  56.9700050  41.5500021  63.6900043
  57.2200012  42.5900030  63.4900045  56.2700033  41.6300011  64.5200014
  57.8000021  40.9500027  64.0600014  57.6200008  40.5100012  61.5500021
  58.2700014  41.3700008  61.4500046  58.3300018  39.7200012  61.8100023
  57.2200012  40.1600027  60.6000042  53.5300016  39.7300029  62.8300047
  53.1300020  40.8900023  62.8700018  53.1000042  38.7900019  61.9500017
  53.6900043  37.9800010  61.8500042  51.9800043  38.9800024  60.9600019
  52.2800016  39.9100018  60.4600048  51.8900013  37.7200007  59.9800014
  51.7200041  36.8400025  60.5800009  50.7900047  37.6900029  58.9500046
  50.9700012  38.4400010  58.1900024  50.7000017  36.6800022  58.5700035
  49.8300028  37.9900026  59.3900013  53.1000042  37.5500011  59.2300034
  53.7500048  37.0600009  59.7500038  50.6600046  39.2200017  61.7200041
  49.8400021  40.1100016  61.3000011  50.4000044  38.4900022  62.8200006
  50.9900045  37.7200007  63.0800009  49.2800045  38.7600017  63.7600040
  48.3400011  38.8400030  63.2100010  49.2100000  37.6300025  64.8500013
  49.9200010  37.8600025  65.6400013  49.6200037  36.7100024  64.4100046
  47.8400040  37.4000025  65.5300045  47.5000000  38.3500028  65.9500027
  47.9600000  36.8000007  66.4300013  46.7300034  36.8600011  64.6100044
  46.4700031  37.6100016  63.8600016  45.8700037  36.6900015  65.2600050
  46.9400024  35.4400015  63.9000034  47.7500010  35.4900026  63.1700039
  46.0300016  35.3000021  63.3200026  47.1900034  34.3200016  64.8700047
  46.9500017  33.3700013  64.6400023  48.1800032  34.3100023  65.1000023
  46.7800045  34.6000028  65.7500029  49.4600010  40.1200008  64.5100021
  48.4900045  40.8800030  64.5700026  50.6000042  40.3100014  65.1000023
  51.3600016  39.6900010  64.8500013  50.8100033  41.5600014  65.8900023
  49.8200035  41.6100025  66.3400030  52.0000029  41.5400028  66.9400024
  52.2300005  40.4800034  67.0500040  53.2900047  42.3800039  66.7300034
  53.0100012  43.3000040  66.2200022  53.8800049  42.5900030  67.6200008
  53.9600039  41.9200039  65.9900045  51.3800001  41.9500017  68.2600021
  52.0000029  41.7600012  69.1300011  51.0900021  43.0000019  68.2400036
  50.4800034  41.3700008  68.3800030  50.6900024  42.8400040  65.0400019
  50.1500034  43.8500023  65.5700016  51.1500025  42.7900028  63.7700033
  51.7100048  41.9800043  63.5700035  50.9000015  43.9200020  62.8200006
  51.0400009  44.8699999  63.3300018  51.8200016  43.7200022  61.6400051
  51.4600039  44.3300009  60.8200026  51.9000006  42.6800013  61.3100052
  53.1700039  44.3200016  61.9000006  53.6100006  45.5800009  61.4700031
  54.6500015  45.9200001  62.2300053  55.2500010  46.7900038  62.0100021
  54.9000025  44.9200010  63.1300020  55.4300022  45.0200033  63.9900017
  54.0000010  43.9000034  62.8500032  53.6800003  43.1100035  63.5100031
  49.4800043  43.9400005  62.3000050  48.9700031  45.0400019  62.2700024
  48.8000011  42.7800035  62.0300007  49.3000031  41.9000006  62.0700026
  47.3699999  42.6900005  61.9300032  47.0600033  43.2500029  61.0400009
  46.9600010  41.2500000  61.7300034  47.2800016  40.5800009  62.5300026
  45.4800034  41.0200024  61.5600014  44.8699999  41.1400032  62.4600029
  45.1100016  41.6700029  60.7700014  45.3200006  39.9700022  61.3500023
  47.4700022  40.7400036  60.5200052  48.4300041  40.7300043  60.5700016
  46.5600014  43.2900000  63.1200027  45.7200003  44.1900015  62.8400040
  46.9700003  43.0600023  64.3800020  47.7200031  42.4000025  64.5400047
  46.3300037  43.6500025  65.5600023  45.2500010  43.4600019  65.5200052
  46.8700027  42.9400015  66.8300009  46.5000010  43.6600018  67.5600052
  47.9400015  43.1000042  66.9100046  46.4300013  41.4800024  67.0600033
  47.3000002  40.9600019  67.4700022  46.1600018  41.0400009  66.1100054
  45.4100037  41.3199997  68.1900024  44.2900038  40.8500004  67.8900051
  45.6800032  41.5700006  69.3600035  46.5900040  45.1800013  65.6500053
  45.6100035  45.8900023  65.9900045  47.7800035  45.6800032  65.2500010
  48.6300039  45.1200008  65.1500034  47.9300022  47.1200037  65.3400040
  47.4900007  47.5400019  66.2500048  49.3900013  47.5200033  65.3700018
  49.5300007  48.3600044  64.7000027  49.9700022  46.7200041  64.9200010
  50.1400042  47.8900003  67.0100021  47.3200035  47.8500032  64.1300011
  46.8700027  48.9700031  64.2700052  47.1600008  47.1900034  62.9600048
  47.5300026  46.2500000  62.9100037  46.4700031  47.6500034  61.7800045
  46.8300009  48.6100006  61.4000034  46.9300032  46.6600037  60.6700039
  46.2000036  46.7200041  59.8500013  46.7700005  45.6599998  61.0600042
  48.5700035  46.8300009  59.9000025  44.9500036  47.6100016  62.0000029
  44.2700005  48.5100031  61.5400028  44.3800020  46.6100025  62.6300049
  45.0200033  45.8900023  62.9100037  43.0000019  46.5300035  63.1300020
  42.2900009  46.7200041  62.3400021  42.8000021  45.0700045  63.6300039
  43.2900000  44.8699999  64.5900011  43.1900024  44.3600035  62.9000044
  41.3500023  44.6900034  63.8300037  40.7300043  44.3800020  65.0400019
  39.4200015  44.3700027  64.8300028  38.6800027  44.2500019  65.6100035
  39.1900015  44.6000004  63.5300016  38.2200027  44.5700026  63.2300043
  40.3400040  44.8400021  62.8800011  40.4800034  45.2600002  61.9000006
  42.6300001  47.5900030  64.2000008  41.4900017  47.7300024  64.6500015
  43.6800003  48.3600044  64.6000051  44.6200037  48.1400013  64.2800045
  43.4700012  49.4300032  65.5400038  42.4900007  49.9100018  65.4800034
  44.2799997  50.1600027  65.4900026  43.6199999  49.0400028  66.9900036
  43.2800007  49.9100018  67.8500032  44.0300035  47.8200006  67.3200035
  44.2700005  47.1700001  66.5800047  44.0400028  47.2200012  68.6600018
  43.2500029  47.6700020  69.2600012  43.5400009  45.7900000  68.4200048
  44.3000031  45.0900030  68.0500031  42.8000021  45.7600021  67.6300049
  42.8800011  45.0600004  69.6200037  42.6100016  45.6300020  70.6800032
  42.5200033  43.8800001  69.4800043  45.3299999  47.4600029  69.4800043
  46.1500025  46.6100025  69.7400045  45.5500031  48.7400007  69.8200035
  44.9200010  49.3900013  69.3500042  46.7300034  49.4400024  70.2900028
  47.5200033  49.0100002  69.6700048  46.7100000  50.9200001  69.8700047
  47.7100039  51.2900019  70.1200056  45.9800005  51.4900017  70.4500055
  46.4600039  51.1700010  68.3900023  45.4000044  51.0500002  68.1600046
  46.6400003  52.6600027  68.2400036  47.6300001  52.9400015  68.6000013
  46.5700006  52.8600025  67.1700048  45.9000015  53.2300043  68.8100052
  47.3000002  50.3400040  67.3900032  46.9600010  49.3100023  67.4600029
  47.1500015  50.6400013  66.3500023  48.3500004  50.4600000  67.6000023
  47.1700001  49.1100025  71.7400026  48.3400011  49.3000031  72.0500040
  46.2600040  48.5900021  72.6300049  45.3100014  48.5700035  72.3000050
  46.5500021  48.2300043  74.0300035  47.3900032  48.8500023  74.3800020
  45.3000021  48.5400009  74.8900032  45.5900002  48.5000038  75.9400034
  44.5200014  47.8299999  74.6400023  44.7000027  49.9700022  74.5900059
  44.3900013  50.0900030  73.5500050  43.4200001  50.1600027  75.4000044
  43.6400032  49.9700022  76.4500046  43.0200005  51.1600018  75.2000046
  42.6800013  49.4500017  75.0600052  45.6900024  51.0800028  74.9200058
  46.6600037  50.9500027  74.4300032  45.2900028  52.0900011  74.8400021
  45.9300041  50.9600019  75.9700060  47.0400000  46.8000031  74.1900015
  47.8600025  46.5900040  75.0500059  46.6900015  45.9500027  73.2400036
  46.2300014  46.3600016  72.4400043  47.1700001  44.5800018  73.1400013
  47.4000025  44.2799997  74.1700029  46.0800028  43.6800003  72.5000048
  46.4100027  42.6500034  72.4900055  45.9200001  44.0100002  71.4700031
  44.7100019  43.6900043  73.2500029  44.1000032  44.5400000  72.9500055
  45.0100040  43.7600040  74.2900038  44.0300035  42.3000002  73.1200027
  43.1800032  42.0800018  72.2300053  44.3000031  41.3600016  73.9200020
  48.4600019  44.4600010  72.2500038  49.4100046  43.7500000  72.6800013
  48.4400034  45.1500034  71.0600042  47.6000023  45.6300020  70.7600021
  49.5700026  45.1500034  70.1900053  49.8900032  44.1200018  70.0000048
  49.1000032  45.7600021  68.9300013  48.6100006  46.7000008  69.1800022
  48.3400011  45.1400042  68.4600019  50.4500008  46.0700035  67.8000021
  50.8600044  45.6400013  70.8500051  51.9200039  45.0500011  70.6600046
  50.8100033  46.6800022  71.7100048  49.9000025  47.0300007  71.9800043
  51.9700003  47.1700001  72.4500036  52.7600002  47.4800014  71.7700052
  51.6400003  48.4800005  73.2100058  52.5800037  48.7700033  73.7000036
  51.3000011  49.2700005  72.5300026  50.9700012  48.4200001  74.0700054
  52.6400042  46.0700035  73.3500051  53.8100004  45.9300041  73.3000040
  51.8000031  45.3000021  74.0600014  50.8000040  45.3200006  73.9800024
  52.2800016  44.2700005  75.0000048  53.1100035  44.6400023  75.6000042
  51.1600018  44.1600037  76.0200024  50.2100039  44.0000010  75.5100060
  51.1700010  45.0600004  76.6300058  51.3500023  43.0299997  77.0700026
  52.5300026  42.5800037  77.2100019  50.3100014  42.5300026  77.5800037
  52.6500034  42.9300022  74.3300056  53.6200047  42.2100019  74.7000027
  51.9900036  42.5200033  73.2900047  51.0700035  42.8900003  73.1100035
  52.2600031  41.3100004  72.4500036  52.5600004  40.4800034  73.0900049
  50.9700012  40.8200026  71.8000031  51.2200022  39.8600030  71.3400030
  50.6600046  41.5100002  71.0200024  49.9100018  40.5000019  72.8600025
  48.8000011  40.2200031  72.4200058  50.1800013  40.4800034  74.1000032
  53.3700037  41.4800024  71.4000034  54.1200018  40.5000019  71.1700010
  53.7100029  42.6999998  70.9300041  53.1200027  43.4700012  71.2200022
  55.0200033  42.8900003  70.2300024  55.1500034  42.2300005  69.3600035
  55.0000048  44.3700027  69.8400021  54.8600006  45.0100040  70.7100010
  54.0800047  44.5600033  69.2900038  56.2400007  44.9100018  69.0200043
  56.2200022  44.4200039  68.0500031  57.2000027  44.6100044  69.4400024
  56.1000013  46.3800001  68.9100027  55.8900023  46.7700005  69.9000025
  55.2300024  46.5900040  68.2900047  57.3600006  47.0800018  68.5100031
  57.7600050  46.7400026  67.6500034  58.0200005  48.0400038  69.1500044
  57.6400042  48.5500002  70.2900028  56.8800020  48.0800009  70.7600021
  58.1400013  49.3200016  70.7300043  59.1000032  48.6200047  68.6400032
  59.4700050  48.3900023  67.7400017  59.5800018  49.3300009  69.1700029
  56.1800003  42.6900005  71.1600018  57.0700026  41.9600010  70.7900047
  56.0400009  43.2400036  72.3800039  55.2100039  43.8000011  72.4800014
  56.9800043  43.1900024  73.4300041  57.9700041  43.4200001  73.0500031
  56.6000032  44.2200041  74.5700026  57.4500036  44.3000031  75.2600050
  56.4200020  45.1900005  74.1000032  55.6900024  43.8900042  75.0700045
  57.1700048  41.7300034  73.9300013  58.3200026  41.4499998  74.2300034
  56.1300039  40.8800030  74.0100050  55.2000046  41.1899996  73.7800026
  56.3500023  39.4300008  74.3000031  57.0200014  39.3300009  75.1600027
  54.9300003  38.7700009  74.4900036  54.6300030  38.6200023  73.4500027
  54.1400003  39.3700027  74.9200058  55.1000023  37.4300027  75.2300024
  54.4900036  36.4200020  74.7800016  55.8400011  37.4100018  76.1800051
  57.2200012  38.7100029  73.2200050  58.1400013  37.9900026  73.5800028
  56.9400024  38.9600015  71.9600058  56.1600018  39.5800018  71.8000031
  57.7900028  38.4700012  70.8100033  57.8700018  37.3800015  70.9200048
  57.0400047  38.9000010  69.5100021  56.9100046  39.9800014  69.5400047
  56.0000038  38.5900021  69.5100021  57.6400042  38.5200024  68.1800032
  58.5000038  39.1600013  68.0000019  58.1500006  37.0900011  68.2100010
  58.5900021  36.9300008  67.2300053  58.9200020  36.8600011  68.9400053
  57.2900009  36.4700007  68.4400034  56.7800045  38.6700010  66.9000053
  57.4700022  38.6700010  66.0500050  56.1000013  37.8500009  66.6900015
  56.2800026  39.6400023  66.8500042  59.1900015  39.0300012  70.8100033
  60.1100016  38.3000016  70.4700041  59.4100046  40.2800035  71.1200047
  58.7000036  40.8200026  71.5700054  60.7600021  40.7300043  71.3200045
  61.3000011  40.6100035  70.3900051  60.6600046  42.2100019  71.7600012
  61.6900015  42.4500036  72.0500040  60.1700020  42.8299999  71.0300016
  60.1700020  42.2700024  72.7400017  61.4700031  39.9000025  72.4000025
  62.6900053  39.6600008  72.3200035  60.7000017  39.5200014  73.4200048
  59.7500038  39.8600030  73.3400011  61.1900043  38.6500025  74.5100021
  62.1900034  38.9500022  74.8100042  60.3700018  38.8400030  75.8400059
  59.3200016  38.7300014  75.5900049  60.6300020  39.8500013  76.1400032
  60.8600044  37.9600024  76.9700050  61.9300032  37.8300023  77.0700026
  60.3100014  37.0200014  76.8700027  60.3300047  38.6700010  78.2000017
  59.2500019  38.6700010  78.1200027  60.6700039  39.7000027  78.2400036
  60.6200027  38.0600023  79.5600033  60.2900028  38.7300014  80.3500080
  61.7000008  38.0700016  79.6900034  60.2400017  36.6600013  79.6100044
  60.1300049  36.3300014  80.5600071  59.3300009  36.4800024  79.2000055
  60.8400011  36.1400008  78.9900017  61.4300013  37.2200012  73.9900017
  62.5800037  36.8200016  74.1300058  60.5300045  36.5800023  73.1900024
  59.6800041  37.0400023  72.9100037  60.8300018  35.2700019  72.5400019
  61.0300016  34.5800018  73.3500051  59.5600033  34.6800017  71.8100023
  59.2400026  35.3600025  71.0100031  58.8400030  34.5500016  72.6000023
  59.7700024  33.3900023  70.9600019  59.3000031  32.2300005  71.5600014
  58.7800026  32.2600007  72.5100040  59.5700026  30.9600019  70.9100056
  59.2300034  30.0100017  71.3100052  60.3000021  30.9800005  69.7400045
  60.3700018  29.7600007  69.1300011  60.8500051  29.6500015  68.3100033
  60.7200050  32.2100019  69.1500044  61.1700010  32.0700026  68.1700039
  60.4800034  33.4200025  69.7600031  60.6500006  34.3500018  69.2500019
  62.0700026  35.3200006  71.6700029  62.8500032  34.4000006  71.6900015
  62.2900009  36.3700008  70.9100056  61.6400051  37.1400023  70.8400011
  63.5000038  36.5200019  70.0700045  63.6700010  35.6200027  69.4700050
  63.3800030  37.7100015  69.1300011  62.9900026  38.5200024  69.7600031
  64.7300053  38.1800008  68.6400032  65.1800013  37.3500013  68.1000042
  64.5500040  38.9900017  67.9300022  65.3700018  38.6400008  69.4000053
  62.3500013  37.5900006  67.9400015  61.5500021  36.9500017  68.3100033
  62.6600027  37.0400023  67.0500040  61.7600012  38.8800025  67.5100040
  62.5400019  39.4900012  67.0400047  61.0000038  38.6700010  66.7600012
  61.3300037  39.4200015  68.3500051  64.6800041  36.6000009  70.9600019
  65.6800032  36.0200024  70.5100012  64.6400023  37.2600007  72.1000051
  63.7600040  37.6700020  72.3600054  65.8400011  37.3100019  72.9900026
  66.6900015  37.3800015  72.3100042  65.7000017  38.5900021  73.8200045
  65.9900045  38.3000016  74.8300028  64.6500015  38.8800025  73.9200020
  66.6400051  40.0200033  73.2000017  66.0300016  36.1200023  73.8900042
  67.1300030  35.8500028  74.2100048  64.9800014  35.3700018  74.3200016
  64.0300035  35.5700016  74.0500021  65.2000046  34.0100026  74.9600029
  65.9800053  34.1600013  75.7100058  63.9100027  33.5700011  75.5200052
  64.0000010  32.5700021  75.9400034  63.1600046  33.5300016  74.7200012
  63.4500027  34.5900011  76.6300058  63.4200048  35.6300020  76.3000059
  64.2200041  34.6300006  77.4000025  62.2000027  34.2000008  77.4200058
  61.3900042  33.3600020  77.0700026  62.0400047  34.8600006  78.4900045
  65.8400011  32.9400015  74.1000032  66.7000055  32.2200012  74.5700026
  65.3600025  32.9000020  72.8600025  64.6200037  33.5600019  72.6300049
  65.9700012  32.1600008  71.7000055  66.3800049  31.2400007  72.1100044
  64.8800039  31.6100025  70.7800055  65.3000021  30.9600019  70.0300026
  64.4400024  32.4900007  70.2900028  63.8500023  30.7600021  71.5200043
  64.0800047  29.6600008  71.9300032  62.6600027  31.2900019  71.7300034
  62.4500036  32.2200012  71.4100027  61.9200039  30.7600021  72.1600056
  67.1400023  32.8100014  71.0000038  67.3800039  32.6600027  69.7800016
  67.8800011  33.6700010  71.7200041  67.6100016  33.9200020  72.6500034
  69.0500021  34.3500018  71.1200047  68.6400032  34.9200010  70.2900028
  69.6600056  35.3000021  72.1500015  68.8700056  36.0200024  72.3300028
  70.5300045  35.8100009  71.7400026  70.0300026  34.6900010  73.4900045
  70.7700014  33.9000010  73.4900045  69.1000032  34.2200017  73.8200045
  70.4700041  35.8200026  74.5000029  71.6200018  35.9200025  74.7100019
  69.5300055  36.6200018  75.0100040  68.5600042  36.4100027  74.8500013
  69.7300053  37.4900007  75.4900026  70.0500011  33.4600019  70.5100012
  70.6700039  33.7300014  69.5200014  70.2600050  32.3300004  71.2400055
  69.7600031  32.3800015  72.1100044  71.2200022  31.3000011  70.9000015
  72.2200012  31.7300010  70.8400011  71.1700010  30.2900004  72.0300055
  71.3700056  30.8300018  72.9600048  72.0600033  29.6800017  71.9000053
  69.8700047  29.4800019  72.1600056  69.0200043  29.9500012  72.9300022
  69.6900034  28.5300016  71.3600016  70.8900023  30.7400012  69.5000029
  71.8000031  30.4900026  68.6700010  69.6600056  30.6800008  69.1200018
  68.9600039  31.1600018  69.6800041  69.0400028  30.0400019  67.9800034
  69.6800041  29.2200017  67.6500034  67.8100014  29.3200016  68.4900045
  67.3800039  28.8200021  67.6200008  67.0700026  30.0100017  68.9100027
  68.0700016  28.2600021  69.3900013  68.5900021  28.6000013  70.1200056
  68.6000013  30.8800006  66.8200016  68.2300043  30.3700018  65.7200050
  68.7400055  32.1900010  67.0000029  69.1300011  32.3600006  67.9100037
  68.3600044  33.2200027  66.0400009  67.8700018  32.7700019  65.1800013
  67.2100019  34.0900016  66.6400051  67.7000046  34.6300006  67.4500036
  66.6900015  35.0600028  65.5000019  66.4000034  34.4500017  64.6400023
  65.8500051  35.6600022  65.8600044  67.4500036  35.7400012  65.1100016
  66.0100031  33.1600022  67.0000029  66.3300037  32.3300004  67.6300049
  65.6000042  32.9000020  66.0300016  64.9400043  33.9700007  67.8300047
  64.2100048  34.5300007  67.2600031  64.3000031  33.2500005  68.3500051
  65.4900026  34.5200014  68.5800028  69.4900036  34.0600014  65.3700018
  69.8700047  34.0300012  64.1600037  70.0900030  34.8200011  66.2700033
  69.8000050  34.7700024  67.2400045  71.2300014  35.7100010  65.9300041
  71.8800020  35.2400017  65.1900053  70.6900024  36.9800019  65.1800013
  69.7000027  37.1400023  65.6000042  70.6300020  36.7900014  64.1100025
  71.4600039  38.1300020  65.3800011  71.0000038  38.8200021  64.9100018
  72.1900034  35.9600019  67.1000051  71.7100048  36.0300016  68.2200050
  73.4800053  36.2800026  66.8000031  73.7600040  36.1000013  65.8500051
  74.5200014  36.7200017  67.7700043  74.2300034  36.3500023  68.7500048
  75.8300018  36.1000013  67.2900009  75.5400038  35.0800014  67.0500040
  76.4600039  36.0800028  68.1800032  76.5900040  36.5900016  66.2300014
  75.9600019  36.7200017  65.5100012  74.7100019  38.2700014  67.7300024
  75.6500053  38.7700009  68.3100033  73.7300014  39.0100026  67.2300053
  73.0100012  38.6000013  66.6500044  73.6200047  40.5000019  67.2500038
  74.4700050  40.8900023  67.8200054  73.7800026  40.9400034  65.8100033
  73.4200048  41.9700003  65.7100010  73.1200027  40.3299999  65.2000046
  75.1800013  40.7700014  65.3600025  75.3200054  39.7000027  65.1500034
  75.9100056  40.9300041  66.1500025  75.5200052  41.6800022  64.1500044
  75.6500053  42.7500010  64.3400049  74.7300053  41.6100025  63.4200048
  76.8400049  40.9899998  63.6900043  76.6400051  39.9400020  63.5800028
  77.5300026  41.0700035  64.5400047  77.4300051  41.6200018  62.5400019
  76.7800045  41.5000010  61.7800045  77.6900053  42.5600004  62.7800035
  78.2500029  41.0900021  62.2700024  72.3200035  41.0300016  67.9600048
  71.9600058  42.2100019  67.9200029  71.6500044  40.0300026  68.5800028
  72.0700026  39.1200018  68.6000013  70.5300045  40.3400040  69.4500017
  69.9700022  41.1600018  69.0200043  69.5500040  39.2100024  69.4800043
  68.7400055  39.6300030  70.0600052  70.0500011  38.3300018  69.8900032
  69.1300011  38.7300014  68.1100035  69.9700022  38.3000016  67.5700045
  68.2500029  37.4800014  68.3800030  68.9700031  36.6700006  68.5100031
  67.5500011  37.7100015  69.1900015  67.5600052  37.3000026  67.5600052
  68.4000015  39.7200012  67.2900009  68.1800032  39.1900015  66.3700008
  67.6000023  40.1200008  67.9000044  69.0800047  40.5299997  67.0400047
  70.8400011  40.7800007  70.9200048  70.0900030  41.6200018  71.3700056
  71.9100046  40.2200031  71.5700054  72.3000050  39.4000030  71.1300039
  72.1400023  40.3400040  73.0300045  71.3500023  39.7900009  73.5100031
  73.4400034  39.5200014  73.4200048  74.3800020  40.0400019  73.2400036
  73.6400032  38.6700010  72.7500057  73.3000040  39.0000010  74.8400021
  72.4100018  38.3700013  74.9000025  73.1500053  39.8900008  75.4600048
  74.4800043  38.0700016  75.2400017  75.4100037  38.6100030  75.3200054
  74.6800041  37.3100019  74.4900036  74.1500044  37.3800015  76.5300035
  73.1400013  37.0700026  76.2800026  74.1800022  38.0600023  77.3700047
  75.0100040  36.2000012  76.8400049  74.5500040  35.4900026  77.4200058
  75.3700018  35.8300018  75.9800053  75.8500051  36.4400029  77.3300028
  72.1900034  41.7900038  73.4800053  71.8800020  42.0300007  74.6500015
  72.4900055  42.7600002  72.6100016  72.7900028  42.4600029  71.6900015
  72.4800014  44.2000008  72.9300022  73.1700039  44.3900013  73.7500048
  73.1100035  45.0600004  71.8000031  74.1700029  44.8800039  71.6800022
  73.1100035  46.0900021  72.1400023  72.3700047  45.0900030  70.4600048
  71.4200020  45.6200027  70.5700016  72.3500013  44.1100025  69.9900055
  73.1200027  46.0800028  69.5700026  72.8300047  47.3100042  69.6000051
  73.9900017  45.6800032  68.7700033  71.1700010  44.7399998  73.3600044
  71.0800028  45.7600021  73.9900017  70.0100040  44.0100002  73.1100035
  70.1200056  43.1800032  72.5400019  68.6400032  44.4700003  73.4600019
  68.7100029  45.5300045  73.6800051  67.8100014  44.1600037  72.2200012
  66.8200016  44.4800043  72.4900055  67.9000044  43.0800009  72.0600033
  68.2000017  45.0800037  70.7300043  68.1200027  43.8100004  74.7500038
  67.3400021  44.3300009  75.5200052  68.5600042  42.5500011  74.9600029
  69.2800045  42.2100019  74.3300056  68.0200052  41.6000032  75.9600019
  66.9600010  41.5200043  75.7400036  68.6700010  40.2300024  75.5800056
  68.3200026  39.4300008  76.2300014  69.7200012  40.1700020  75.8900023
  68.5400009  39.7400022  73.8500023  68.3900023  41.9300032  77.3800039
  67.8300047  41.3600016  78.2900047  69.2900038  42.9300022  77.6500034
  69.8800039  43.3000040  76.9100046  69.6000051  43.5600042  78.9800024
  69.7500038  42.7100039  79.6600056  70.9200048  44.3100023  78.7400055
  71.7400026  43.6100006  78.5600042  71.2500048  44.8000002  79.6600056
  70.9300041  45.4200029  77.6700020  70.2600050  46.2500000  77.9100037
  70.6000042  45.1400042  76.6700029  72.3300028  46.0100031  77.4600029
  73.1600046  45.2300024  77.0000029  72.5500011  47.2300005  77.6400042
  68.5900021  44.6000004  79.5400047  68.5300016  44.8699999  80.7800007
  67.6800013  44.9900007  78.6200047  67.5600052  44.5000029  77.7300024
  66.7900038  46.1900043  78.8100052  67.2700024  46.9300032  79.4600058
  66.5300035  46.9000006  77.4800014  65.8700037  47.7700043  77.6000023
  66.0600042  46.1199999  76.8900013  67.8100014  47.4100018  76.8000031
  68.5800028  46.6900015  76.5500021  68.3300018  48.1100035  77.4600029
  67.4100018  48.1100035  75.4700041  66.7000055  48.8900042  75.7300043
  67.0100021  47.4100018  74.7300053  68.6000013  48.8000011  74.8800039
  68.3300018  49.1600037  73.8900042  69.4700050  48.1500006  74.8000050
  69.0400028  49.9400043  75.7300043  69.4300032  49.6100044  76.6000032
  69.7600031  50.4800034  75.2700043  68.2900047  50.5100012  76.0900021
  65.4700041  45.8000040  79.4900036  65.1800013  44.5700026  79.5800018
  64.6700048  46.7700005  80.0100040  65.2400017  47.9300022  80.7999992
  65.4000044  48.8300037  80.2099991  66.2100029  47.6800013  81.2200069
  64.2700052  48.1200027  81.9600010  64.3400049  49.1700029  82.2300053
  64.5200014  47.4400043  82.7700043  62.9500008  47.7700043  81.3300037
  62.7100039  48.7100029  80.8600044  62.1100044  47.5200033  81.9799995
  63.2500029  46.6400003  80.3900051  63.1100035  45.7000017  80.9100056
  62.2800016  46.5700006  79.1600037  62.5800037  47.0600033  78.0800056
  61.1200047  45.9600019  79.3900061  61.0300016  45.5100012  80.2900028
  60.4500008  45.2100039  78.2800055  61.2300014  44.5900011  77.8500032
  59.4200039  44.2400026  78.8700056  58.6200047  44.8300028  79.3000031
  59.9100018  43.6500025  79.6600056  58.8100004  43.1500006  77.9400015
  58.1400013  43.6700010  77.2700024  59.9500036  42.4400043  77.2000027
  60.3800011  43.2100010  76.5600014  60.6900024  42.0300007  77.8800058
  59.6300030  41.6499996  76.5300035  58.0100012  42.1600008  78.8100052
  57.1600008  42.5900030  79.3200016  57.7600050  41.3400030  78.1300020
  58.6800051  41.7100000  79.5600033  59.9800014  46.0800028  77.1300030
  59.9600029  45.6599998  75.9700060  59.5900011  47.3900032  77.3800039
  59.6900034  47.7400017  78.3200026  59.1700029  48.1800032  76.2600040
  58.6600018  47.5500011  75.5300045  58.1700039  49.2200041  76.6600037
  57.8900051  49.7200012  75.7300043  58.5600042  49.9800014  77.3300028
  56.7600012  48.6700010  77.1200037  56.7600012  47.9400015  77.9200029
  56.0600042  49.8800039  77.7800035  55.0300026  49.6200037  78.0200052
  56.5600014  50.2800035  78.6600018  56.0400009  50.7700014  77.1400023
  55.9200048  48.0700016  76.0200024  56.4900017  47.2900009  75.5100060
  54.9100018  47.7900028  76.3300037  55.8000040  48.8300037  75.2600050
  60.4000044  48.7400007  75.5000019  60.3100014  48.6900043  74.2400026
  61.4600039  49.1700029  76.1400032  61.6000032  48.8800001  77.1000051
  62.7200031  49.4900036  75.4300022  62.4700022  50.1700020  74.6000051
  63.7600040  50.2400017  76.2400055  64.2800045  49.5300007  76.8700027
  63.1200027  50.8500004  76.8800020  64.8200035  51.0700035  75.4400015
  64.4900036  51.7800045  74.6900034  65.4400015  50.3700018  74.9000025
  65.7500029  51.8100023  76.4800024  66.8600035  51.3600016  76.8000031
  65.3300047  52.8500032  77.0100021  63.3300018  48.2500029  74.7700024
  63.9800024  48.4100008  73.7300014  63.2500029  47.1100044  75.3900051
  62.7100039  47.2200012  76.2300014  63.7500048  45.7700014  74.8700047
  64.8300028  45.8200026  74.7500038  63.4100008  44.6000004  75.8700037
  62.3400021  44.5000029  76.0600042  63.7800026  44.8800039  76.8600035
  63.9900017  43.2000017  75.4500055  65.0200033  43.2700014  75.1000023
  63.3900023  42.7900028  74.6400023  63.7200022  41.9800043  76.5200043
  64.2100048  41.0900021  76.1500025  62.6500034  41.8900013  76.6900015
  64.3500042  42.3300028  77.9000044  63.8400030  43.1700039  78.3700037
  65.3700018  42.6500034  77.6700020  64.5500040  41.2300014  78.8700056
  65.4200029  41.3300037  79.3600035  63.8600016  41.0300016  79.5800018
  64.6700048  40.4200029  78.2700014  63.2200050  45.5400038  73.4700012
  63.9700031  45.1800013  72.6000023  61.8700027  45.7700014  73.2500029
  61.3300037  45.9700012  74.0700054  61.1900043  45.7700014  71.9400024
  61.5900040  44.9300003  71.3800049  59.7100019  45.4700041  72.1800041
  59.6600008  44.7000027  72.9500055  59.2100048  44.9100018  71.3900042
  59.0000010  46.5900040  72.6500034  59.4200039  47.0300007  73.3900023
  61.4000034  46.9700003  71.0600042  61.3300037  46.8100023  69.8300028
  61.7300034  48.1100035  71.6400051  61.7000008  48.2200003  72.6500034
  62.2800016  49.1900015  70.8700037  61.6600037  49.4300032  70.0100040
  62.2800016  50.4400015  71.7500019  63.0500031  50.2700043  72.5000048
  61.3000011  50.5000019  72.2300053  62.5300026  51.7400026  71.0100031
  61.6800022  52.3100042  70.0400019  62.2000027  53.5300016  69.7200012
  61.7500019  54.2600012  69.0600014  63.3300018  53.6800003  70.4000044
  63.8900042  54.5300007  70.4000044  63.5300016  52.6200008  71.2300014
  64.2000008  52.5000048  72.0600033  63.7000036  48.9100027  70.2900028
  63.9500046  49.3700027  69.1600037  64.5500040  48.2700014  71.0600042
  64.3400049  48.0200005  72.0100021  65.8700037  47.9100037  70.5300045
  66.2600040  48.8300037  70.0900030  66.7000055  47.4700022  71.6700029
  66.2300014  46.6800022  72.2600031  66.8300009  48.3800030  72.2700024
  68.4100056  47.0100021  71.3000011  65.6800032  46.8000031  69.4300032
  66.1800051  46.9400024  68.3100033  64.8700047  45.7700014  69.6700048
  64.3800020  45.7200003  70.5400038  64.6500015  44.6500015  68.6800051
  65.5300045  44.1200018  68.3400011  63.7000036  43.6100006  69.2800045
  62.9700041  44.1900015  69.8400021  62.9000044  42.6900005  68.3700037
  63.5900021  42.2000027  67.6900053  62.4200010  41.8800020  68.9100027
  62.2200012  43.2900000  67.7500010  64.3900013  42.7200031  70.3000021
  63.6300039  42.1500015  70.8300018  64.7800016  43.3400011  71.1000013
  65.6900024  41.9600010  69.9000025  65.6100035  41.5400028  68.9100027
  66.4900017  42.6999998  69.8600054  65.8700037  41.2300014  70.6900024
  64.1400051  45.1600027  67.3300028  64.4700050  44.6500015  66.2900019
  63.3600044  46.2300014  67.3200035  63.0200052  46.5300035  68.2300043
  62.7600050  46.8400002  66.1200047  62.2700024  46.0000038  65.6200027
  61.7800045  47.8800011  66.7000055  61.0400009  47.3000002  67.2500038
  62.3400021  48.5100031  67.3900032  61.3100052  48.4400034  65.9000015
  63.8000011  47.3900032  65.2000046  63.4800053  47.7300024  64.0700054
  65.0500011  47.5000000  65.5800009  65.3000021  47.3699999  66.5500021
  66.1500025  47.9200029  64.7000027  65.9200048  47.5900030  63.6900043
  66.1100054  49.4600010  64.6900034  66.3400030  49.8000002  65.7000017
  65.1000023  49.8200035  64.4700050  66.9800043  50.1700020  63.6200047
  68.0600023  50.1500034  63.8400030  66.7400026  51.2400007  63.6900043
  66.7400026  49.7500038  62.1800041  67.2500038  48.7100029  61.6500044
  66.0400009  50.5300045  61.5300035  67.5600052  47.2700024  64.9900007
  68.5700035  47.8900003  64.8400021  67.6100016  46.0400009  65.4200029
  66.7600012  45.5300045  65.5900049  68.8300037  45.2300024  65.5500031
  69.4800043  45.8600044  66.1300039  68.7600040  43.8700008  66.2000036
  69.7200012  43.3700037  66.0300016  68.4600019  43.9200020  67.6100016
  68.4900045  42.9100037  68.0200052  69.3000031  44.4600010  68.0500031
  67.5100040  44.4200039  67.7800035  67.7100039  43.0800009  65.2900028
  67.9300022  43.1100035  64.2300034  67.6100016  42.0100021  65.4700041
  66.7600012  43.5500002  65.5800009  69.5700026  45.0800037  64.1300011
  68.8900042  45.1600027  63.1100035  70.8900023  44.8200035  64.2100048
  71.2300014  44.6000004  65.1200008  71.8500042  44.8100042  63.0600023
  71.4900017  45.4500008  62.2500038  73.1000042  45.5800009  63.6300039
  73.5000038  44.9100018  64.3900013  72.7800035  46.5100002  64.0800047
  74.1900015  45.7600021  62.5800037  74.6400023  44.8100042  62.3200035
  74.9500036  46.3100004  63.1400013  73.8300037  46.6300011  61.3400030
  73.1000042  46.1199999  60.4500008  74.3000031  47.8000021  61.2500048
  72.1100044  43.4100008  62.4100018  72.1800041  42.3500013  63.0800009
  72.4100018  43.4300041  61.0900021  72.6700020  44.3000031  60.6600046
  72.5200033  42.1600008  60.2500010  71.6300011  41.5500021  60.3600025
  72.6900053  42.4400043  58.7600040  73.7200022  42.6900005  58.5100031
  72.1200037  43.3300018  58.5000038  72.1000051  41.4100027  57.8400040
  71.3000011  41.6499996  56.9400024  72.7400017  40.1900005  57.8700018
  73.4700012  39.9400020  58.5300016  72.2700024  39.4700027  57.3700047
  73.7100029  41.2400007  60.7300043  74.8500013  41.7100000  60.6400013
  73.4200048  39.9800014  61.0300016  72.4400043  39.7600007  61.1700010
  74.5300055  39.0100026  61.4900017  75.2400017  39.5900011  62.0800018
  73.8000011  37.9700017  62.4100018  73.3600044  37.2200012  61.7300034
  72.9900026  38.4000015  63.0000019  74.6300030  37.1600008  63.4000015
  75.8100033  37.4600029  63.5500050  74.0800047  36.2200022  63.9500046
  75.3700018  38.4600019  60.2900028  75.1200056  38.8200021  59.1500044
  76.3800049  37.6200008  60.6200027  76.4400053  37.4200010  61.6000032
  77.1900034  36.9100022  59.6200037  77.0800018  37.4300027  58.6800051
  78.6500025  37.0100021  60.0400019  79.2400026  36.1600018  59.7100019
  78.6200047  37.0200014  61.1300039  79.3200016  38.3600020  59.7100019
  79.1600037  38.5800028  58.6400032  80.3900051  38.3100009  59.8600006
  78.8300037  39.5300007  60.6000042  79.0900040  39.4400024  61.8100023
  78.2900047  40.5700016  60.1400042  76.8300056  35.4600024  59.4500017
  76.1800051  34.8300028  60.3200006  77.1900034  34.8700023  58.3100033
  77.7600050  35.4700017  57.7200031  76.7500019  33.4700012  57.9600048
  75.6600046  33.4300017  57.8700018  77.3700047  33.1800008  56.5500021
  77.2500038  32.1000004  56.4400005  78.4200048  33.3900023  56.4000034
  76.6000032  33.9100027  55.4900026  76.6100025  34.9800014  55.7000017
  75.5600023  33.5600019  55.5300045  77.2300053  33.6700010  53.7800026
  76.5100050  35.0000024  52.9000044  76.7600060  35.9300017  53.4000015
  76.9700050  35.0800014  51.9100046  75.4300022  34.8700023  52.9200029
  77.2000027  32.3300004  58.9500046  78.1900024  32.6100016  59.6400023
  76.4900017  31.2300014  59.0000010  75.1400042  30.9800005  58.4400034
  75.0700045  31.3100004  57.4000025  74.3800020  31.5700006  58.9400005
  74.9800014  29.5100021  58.4700012  75.3300047  29.1100025  57.5200033
  73.9800024  29.0900016  58.5400009  75.8200026  29.0900016  59.6700048
  76.2500048  28.0800009  59.6000051  75.2000046  29.1000009  60.5700016
  76.9700050  30.0800014  59.7600031  77.2000027  30.3900003  60.7800007
  78.3200026  29.7000003  59.0800047  78.5800028  29.8600006  57.9000044
  79.0500021  28.9900017  59.9300051  78.6900043  28.9000010  60.8700037
  80.3400040  28.3500004  59.6300030  81.0200024  29.0600014  59.1700029
  80.9500027  28.0400014  60.9100008  80.4100037  27.2400022  61.4300013
  82.0200062  27.8400016  60.9300041  81.0100079  28.9400005  61.5200043
  80.3400040  27.1300006  58.7400007  81.3500023  26.7600012  58.1000042
  79.1700029  26.5000010  58.5600042  78.4000015  26.9300008  59.0400028
  78.9300060  25.3300023  57.7700043  79.6500015  25.2300000  56.9600010
  78.9700031  24.0400004  58.6700010  80.0100040  23.9000010  58.9900017
  78.6500025  23.1800008  58.0700016  78.1500053  24.1200018  59.9200010
  77.3200035  25.0000000  60.0200033  78.3400059  23.2600021  60.8300018
  77.5400019  25.4800010  57.0600033  76.8100023  24.5100021  56.8300009
  77.3200035  26.6800022  56.4200020  77.9800034  27.4400020  56.5300035
  76.1700058  26.9300008  55.5400038  75.3100014  26.7600012  56.2000036
  76.3600016  28.3500004  55.0100040  77.2900057  28.4500003  54.4500017
  76.5300035  29.0300012  55.8500004  75.1000023  28.8100004  54.1600037
  74.8300028  28.0400014  53.4200048  73.8500023  28.9200020  55.1100016
  73.9900017  29.6800017  55.8800030  72.9600048  29.2500019  54.5700026
  73.7200022  27.9200006  55.5300045  75.2700043  30.1600003  53.4600019
  74.3900013  30.3400016  52.8400040  75.5000019  30.9600019  54.1600037
  76.1400032  30.0300026  52.8200006  76.1800051  25.9100008  54.4100046
  77.2100019  25.8600020  53.6200047  75.1700020  25.1100016  54.2400026
  73.8900042  25.1500010  54.9100018  73.2900047  26.0100007  54.6300030
  74.1300058  25.1300001  55.9700012  73.0000019  23.9500022  54.3900013
  72.0700026  24.4000006  54.0400028  72.6100016  23.3200002  55.1900005
  73.8400030  23.1600022  53.4600019  73.2600021  23.0200005  52.5400019
  74.2600012  22.2700000  53.9400005  75.0900030  24.0700006  53.2500029
  75.9200048  23.4200001  53.5000038  75.1000023  24.7000003  51.8600035
  74.6400023  25.8400011  51.6900015  75.6300020  24.0300012  50.7800007
  76.0200024  23.1100011  50.9500027  75.5600023  24.4700003  49.3700027
  75.8000040  25.5200005  49.2800045  76.5300035  23.6600018  48.4800005
  76.1400032  22.6500010  48.4100008  77.5500059  23.6000013  48.8900042
  76.5300035  24.3800020  47.2700024  77.3500013  24.2500019  46.7800045
  74.1700029  24.4100022  48.7600040  73.4200048  23.5600019  49.2000008
  73.8500023  25.3400016  47.8400040  74.6200037  25.8800006  47.4700022
  72.5800037  25.2600002  47.1400023  71.8300056  25.0800014  47.9200029
  72.2500038  26.6700006  46.6300011  71.3000011  26.5700006  46.1199999
  73.1100035  26.8900013  46.0100031  72.1800041  27.8300023  47.6600027
  73.1200027  27.9300022  48.1900024  72.2000027  29.0600014  46.7500019
  72.2400045  29.9600005  47.3500013  73.1400013  29.0600014  46.2000036
  71.3400030  29.0700006  46.0800028  70.9500027  27.9000020  48.5300016
  70.0900030  27.5300002  48.0000019  71.1600018  27.2500014  49.3800020
  70.6900024  28.9400005  48.7400007  72.4100018  24.1900015  46.1100006
  71.5400028  24.3700004  45.2400017  73.2400036  23.1100011  46.1100006
  73.9500046  22.9900002  46.8200016  73.2300043  22.2300005  44.9500036
  73.2600021  22.8299999  44.0400028  74.5300055  21.3300014  45.0900030
  75.4300022  21.9600010  45.0900030  74.4500017  20.6599998  45.9400034
  74.6100044  20.6800008  44.2100000  71.9800043  21.2500000  44.8300028
  71.8400049  20.7900000  43.7200022  71.2700033  21.0000014  45.9300041
  71.6700029  21.1500001  46.8500042  70.0000048  20.3200006  45.8100033
  69.9600029  19.6800005  44.9400043  69.8000050  19.4000006  47.1400023
  70.6000042  18.6800003  47.3200035  69.7800016  20.1100016  47.9800034
  68.8600016  18.8600004  47.1500015  68.7600040  21.2300014  45.4800034
  67.6500034  20.6700015  45.3900003  68.9800024  22.5600004  45.4500008
  69.9300051  22.8800011  45.5100012  67.8300047  23.5500002  45.5600023
  66.9600010  23.1100011  46.0300016  68.2600021  24.6900010  46.5000010
  67.5100040  25.4600000  46.6800022  69.1900015  25.1700020  46.1800003
  68.5500050  24.1500020  47.8700018  67.5800037  23.8700008  48.6400032
  69.7700024  24.1700006  48.2400036  67.4000025  24.0400004  44.2200041
  67.6400042  23.4300017  43.1500006  66.6600037  25.2000022  44.2000008
  66.3700008  25.5800009  45.0900030  65.8700037  25.6100011  43.0600023
  65.3200054  24.7900009  42.5800037  64.8700047  26.6500020  43.5200024
  64.1000032  26.1500001  44.1200018  64.3600035  27.0500016  42.6300001
  65.4600048  27.8000021  44.3400002  65.5500031  27.6500010  45.7700014
  65.1800013  26.7600012  46.2500000  66.1800051  28.6100006  46.5900040
  66.1400032  28.5400009  47.6700020  66.8600035  29.7200012  46.0700035
  67.2800016  30.4700017  46.7100000  66.8200016  29.8300004  44.6800041
  67.2400045  30.7300019  44.2400026  66.1100054  28.9200020  43.8500023
  66.1900043  28.9700007  42.7800035  66.7800045  26.1900020  41.9700003
  66.4000034  26.1200023  40.8300018  68.0100012  26.5700006  42.2500038
  68.3900023  26.5800023  43.1900024  68.9700031  27.0100021  41.1800003
  68.4000015  27.6300025  40.4900026  70.2100039  27.8600001  41.7000008
  70.9500027  27.8700018  40.8900023  69.8200035  29.3000007  42.1700001
  70.7300043  29.8000026  42.5200033  69.3100023  29.7900009  41.3400030
  69.0800047  29.1200018  42.9600000  70.7900047  27.1100020  42.9400015
  71.7300034  27.6100016  43.1400013  70.1300049  27.3000002  43.7900019
  71.0400057  26.0600019  42.8000021  69.4700050  25.8400011  40.3000021
  69.9700022  26.1100006  39.2200017  69.3400049  24.5600009  40.6599998
  68.9500046  24.4500017  41.6000032  69.8600054  23.3700013  39.9200010
  70.2600050  23.7400007  38.9800024  71.0800028  22.8500009  40.6800032
  71.4000034  21.9700003  40.1100016  70.7800055  22.7100015  41.7100000
  72.3000050  23.8200021  40.7300043  72.9600048  23.5800004  41.5600014
  72.0300055  24.8500013  40.9899998  73.0300045  23.9700007  39.4500017
  74.1100025  24.6300006  39.4600010  72.5900030  23.5100007  38.4100008
  68.8100052  22.2900009  39.6300030  68.9400053  21.5799999  38.6300015
  67.7800035  22.2100019  40.5000019  67.7300024  22.7300000  41.3600016
  66.6900015  21.2900019  40.3700018  67.1100044  20.2800012  40.3500032
  65.6800032  21.4600015  41.5300035  65.3900051  22.4900007  41.6700029
  66.0600042  21.0200000  42.4600029  64.4300032  20.8100009  41.1400032
  63.8400030  20.8500004  41.9000006  65.9300041  21.5200019  39.1100025
  65.7100010  22.7200007  38.7600017  65.5400038  20.4200006  38.5000014
  65.7500029  19.5300007  38.9400029  64.7100019  20.5100012  37.3800015
  64.7400045  21.5000010  36.9400024  65.2100039  19.4500005  36.2900019
  64.5300007  19.5700014  35.4500008  65.1700020  18.4300005  36.6700006
  66.6200018  19.6500015  35.7400012  67.2900009  19.3900013  36.5600014
  66.7300034  20.7100010  35.5300021  66.9900036  18.8300014  34.4700027
  67.0400047  17.7600014  34.6700025  68.0300045  19.0300012  34.1900015
  65.9700012  19.0200007  33.3400011  65.9700012  20.0999999  33.1300020
  64.9400043  18.8100004  33.6500025  66.4700031  18.3100009  32.1000004
  67.3800039  18.6900008  31.9000006  66.6600037  17.3300004  32.2900009
  65.8400011  18.4900010  31.3400006  63.2500029  20.1200008  37.6300025
  62.4800014  20.1700020  36.7300010  62.9000044  19.7800004  38.8700008
  63.6000013  19.8700011  39.5900011  61.6100025  19.2000008  39.2600012
  61.1000013  19.0400004  38.3200026  61.5300035  17.7800012  39.7800016
  61.7100048  17.0900011  38.9400029  60.5700016  17.5100005  40.1900005
  62.5700045  17.5200009  40.9100008  63.3900023  16.5400004  40.6700039
  62.4600029  18.1100011  42.0100021  60.7500029  20.1500010  40.0900030
  59.7500038  19.6800005  40.6599998  61.1200047  21.4100003  40.3100014
  62.0000029  21.5700006  39.8400021  60.4300022  22.4600005  41.0900021
  60.7200050  22.2900009  42.1300030  60.9000015  23.8800001  40.8300018
  60.2800035  24.6100020  41.3600016  62.3500013  24.2000008  41.1400032
  62.5000048  25.2800012  41.1700010  62.4600029  23.9000010  42.1900034
  63.0700016  23.6900020  40.5200005  60.6900024  24.3900013  39.3500018
  59.6300030  24.6600008  39.2500019  61.2800026  25.2800012  39.1500020
  60.9100008  23.5600019  38.6900020  58.8700008  22.4700022  40.9899998
  58.2000017  22.8200006  41.9200039  58.2800007  22.2500014  39.8200011
  58.7300014  21.8800020  39.0000010  56.8100023  22.2600007  39.6300030
  56.3500023  23.2400012  39.8400021  56.4300013  22.0400000  38.1200027
  55.4100037  21.6400003  38.0300021  57.1300030  21.2900019  37.7900028
  56.6300011  23.4300017  37.0400023  56.0800028  21.2500000  40.5600023
  54.9000025  21.4800000  40.8599997  56.7100048  20.1400018  40.9800005
  57.7000046  20.1200008  40.8300018  56.0900021  19.2500007  41.9900036
  55.1000023  18.9600015  41.6200018  56.9700050  18.0100012  42.1900034
  56.6700029  17.4500012  43.0700016  58.0400038  18.2600009  42.2000027
  56.7000008  16.9900012  41.0200024  56.8800020  17.4800003  40.0699997
  55.6400013  16.7400002  41.0900021  57.4300051  15.6500006  41.0800028
  57.1100044  15.1500010  42.0000029  58.4900045  15.8700013  41.2200022
  57.0600033  14.6800005  39.9400020  57.2100019  15.0700009  38.9400029
  56.0100031  14.3800008  40.0000000  57.8400040  13.4400010  40.0900030
  57.5600004  12.8400004  40.8599997  57.8200006  12.8700006  39.2500019
  58.8000011  13.6500001  40.3299999  55.9300041  20.0000000  43.3300018
  54.9200010  19.8100007  43.9700031  56.8800020  20.8200002  43.6900043
  57.6800013  20.8700013  43.0700016  56.8400049  21.7100000  44.8600006
  56.6800022  21.1199999  45.7800007  58.2500029  22.4400020  45.0600004
  57.9700041  23.0400014  45.9300041  58.5100031  23.0000019  44.1500044
  59.4200039  21.5200019  45.3700018  59.9100018  20.8400011  44.5200014
  59.9300051  21.5799999  46.5799999  59.6900034  22.2900009  47.2600031
  60.8900023  21.2700009  46.5100002  55.7500029  22.7600002  44.7600031
  54.9000025  22.9800010  45.5900002  55.7700014  23.3900023  43.6100006
  56.4400005  23.1100011  42.8900003  54.8200035  24.4300008  43.1800032
  54.8600006  25.2200007  43.9400005  55.2400017  25.0200009  41.8600035
  54.7900009  24.3600011  41.1100006  56.3200045  25.1100016  41.7100000
  54.6300030  26.3900018  41.4800024  55.2200031  27.5300002  42.0400000
  56.0100031  27.3300004  42.7600002  54.7600031  28.8600016  41.7700005
  55.2700043  29.6900010  42.2500038  53.6300039  28.9800024  41.0100031
  53.1700039  30.2100015  40.7300043  52.4500036  30.1100016  40.1100016
  53.0100012  27.8400016  40.4300022  52.1200037  27.9400015  39.8400021
  53.4700012  26.5500021  40.6700039  52.9200029  25.7100010  40.2800035
  53.2800007  24.1200018  43.2200003  52.4500036  24.8900008  43.7400007
  52.9200029  22.8400016  42.8400040  53.7100029  22.3400021  42.4400043
  51.6300011  22.2600007  42.8800011  50.8800030  23.0400014  42.7500010
  51.5300035  21.1600018  41.8400002  52.2200012  20.3500009  42.0600033
  50.5400038  20.7100010  41.8000031  51.6700029  21.5700006  40.8400011
  51.2600040  21.6800022  44.2799997  50.1200008  21.3300014  44.5200014
  52.2400045  21.6100001  45.1500034  53.1600046  22.0000005  44.9900007
  52.0800018  20.9800005  46.4800024  51.2400007  20.2900004  46.3600016
  53.3700037  20.1999998  46.7300034  54.2800045  20.7100010  46.4100027
  53.3000040  19.3500006  46.0700035  53.5100031  19.7900009  48.2300043
  52.5900030  19.2300010  48.4300041  53.5800028  20.6100011  48.9400005
  54.7400045  19.0100014  48.4200001  54.6300030  17.7500010  48.4300041
  55.8300018  19.6500015  48.4900045  51.7300034  21.9800019  47.5900030
  50.6700039  21.8900013  48.2600021  52.5200033  23.0400014  47.8200006
  53.3300018  23.1900001  47.2200012  52.2100019  24.0600014  48.7800026
  51.1700010  24.3600011  48.5800028  52.4300003  23.5300016  50.2200031
  51.7500019  22.6800013  50.3100014  53.4700012  23.1900001  50.3100014
  52.2000027  24.2800021  50.9800005  53.0400038  25.2200007  48.4800005
  54.1000032  25.4600000  49.0500021  52.5400019  26.0400009  47.5200033
  51.6500044  25.8300018  47.0800018  53.2200003  27.1800017  46.8700027
  54.0700006  26.8000007  46.3200045  52.2300005  27.9200006  45.9700012
  51.3400030  28.2200003  46.5200043  52.0100021  27.2000003  45.1700020
  52.7500010  29.0900016  45.2200031  53.4600019  28.7200022  44.4700003
  53.2400036  29.8500013  45.8400011  51.5800047  29.8000026  44.4500017
  50.7300043  30.0500011  45.1000023  51.2000036  29.2000008  43.6300039
  51.9900036  31.0800004  43.7100029  53.0200005  30.9000015  43.3900023
  51.9900036  31.8700004  44.4600010  51.1200047  31.5200019  42.6500034
  50.2300024  31.7800021  43.0400038  51.4700031  32.3400021  42.1900034
  50.8900023  30.7700014  42.0000029  53.7900019  28.2300019  47.8000021
  54.8400021  28.7900019  47.4900007  53.0800009  28.6300015  48.8000011
  52.2800016  28.0500007  49.0000010  53.4000015  29.6700025  49.7400045
  53.8100004  30.5900025  49.3200016  52.1700048  30.0800014  50.5600023
  51.4100027  30.6000018  49.9800014  52.5400019  30.9000015  51.1900043
  51.6100025  28.9900017  51.4000034  51.0300016  29.3100023  52.4500036
  51.5200043  27.8100014  50.9600019  54.5500040  29.1600013  50.7000017
  55.3200006  29.9900007  51.1200047  54.6700048  27.8800011  51.0300016
  53.9000034  27.2700024  50.7500029  55.8200026  27.2600007  51.6900015
  56.0400009  27.9800010  52.4900007  55.3900003  25.9400010  52.3400021
  55.0900030  25.2800012  51.5300035  56.5200043  25.3200006  53.0800009
  57.0100021  25.9500003  53.8400030  56.1600018  24.4700003  53.6600018
  57.2800016  24.9400020  52.3900032  54.1600037  26.0000014  53.3500004
  53.2700014  26.3600016  52.8300047  53.9200020  24.9900007  53.7000036
  54.4500017  26.5800023  54.2200041  56.9400024  27.0900011  50.7400036
  58.0800009  27.4600005  51.0800028  56.6800022  26.7500019  49.4500017
  55.7300043  26.5200019  49.2200041  57.7300024  26.6800022  48.3800030
  58.5500050  26.0700011  48.7800026  57.2700024  25.9000015  47.1300030
  56.3200045  26.3200021  46.8000031  57.0300007  24.8800015  47.4400043
  58.2300043  25.9500003  45.9700012  58.0300045  26.4400005  44.6600008
  57.0100021  26.7200017  44.3800020  59.0600014  26.4800024  43.7000036
  58.8300037  26.9200015  42.7400017  60.3300047  26.1000013  44.0600014
  61.1300039  26.3200021  43.3800030  60.5800009  25.6300020  45.3800011
  61.5500021  25.2400017  45.6599998  59.5400047  25.5500007  46.2900019
  59.7800016  25.3000021  47.3300028  58.3400011  28.0300021  48.0100012
  59.5500040  28.2100010  47.8299999  57.4900007  29.0700006  47.8600025
  56.4900017  28.9200020  47.9000044  58.0400038  30.4800010  47.6000023
  58.8100004  30.3800011  46.8400002  56.9200039  31.3900018  47.2000027
  57.1800041  32.4500012  47.2800016  56.1300039  31.1900020  47.9200029
  56.4000034  31.1600018  45.7300043  56.1300039  30.1000023  45.7000017
  55.1600027  32.0400023  45.3800011  54.3100023  31.8200016  46.0300016
  55.5200005  33.0600023  45.4100037  54.9600029  31.8900013  44.3200016
  57.3900032  31.5400004  44.6500015  57.4800014  32.6200008  44.4600010
  58.4000015  31.4200020  45.0300026  57.2700024  30.8600020  43.8200045
  58.6300039  31.0600019  48.9200020  59.4200039  31.9900012  48.8500023
  58.3100033  30.5000019  50.0900030  57.6900005  29.7100019  50.0100040
  58.8600016  30.6900024  51.3800001  58.1500006  30.1300025  52.0000029
  58.7900019  31.7400026  51.6400003  60.3000021  30.2500010  51.5200043
  61.1000013  31.1400008  51.7100048  60.6200027  29.0000010  51.4200020
  59.8700047  28.3400011  51.2500048  61.9700050  28.3900023  51.4400005
  62.6500034  28.7400007  52.2200012  61.8200016  26.9000006  51.4900017
  61.0700035  26.6900015  52.2600031  62.7500010  26.4900017  51.8700027
  61.3400030  26.1100006  50.2000046  60.4000044  26.5700006  49.8900032
  61.0600042  25.1200008  50.5600023  62.3100042  26.0200024  48.6800003
  63.8300037  25.2500010  49.3100023  64.4400024  25.9400010  49.8800039
  63.5100031  24.4700003  50.0000000  64.5400047  24.8800015  48.5600042
  62.9000044  28.7700009  50.2300024  64.0900040  28.8600016  50.4400015
  62.2400045  29.1700006  49.1300011  61.2500048  29.0400004  49.1000032
  62.7900028  30.0600004  48.1100035  63.7100029  29.5500016  47.8000021
  61.8300009  30.2400017  46.9200039  60.8400011  30.5000019  47.3000002
  61.7600012  29.2800021  46.4200020  62.1600008  31.2900019  45.8400011
  62.9200029  30.9500003  44.6500015  63.3900023  29.9800014  44.5300007
  63.1600046  31.9700027  43.7000036  63.7500048  31.8100023  42.8000021
  62.6700020  33.2600021  43.9300013  62.9100037  33.9800024  43.1599998
  62.1000051  33.6400008  45.1000023  61.7000008  34.6400023  45.1000023
  61.7100048  32.6500010  46.0200024  61.1000013  32.8800011  46.8800020
  63.2800007  31.4100003  48.6400032  64.5100021  31.6100025  48.5200024
  62.4300051  32.2600007  49.2500019  61.4700031  31.9400024  49.3300009
  62.7900028  33.5900021  49.6500015  63.4300041  33.9500022  48.8500023
  61.4600039  34.3100023  49.6400023  60.9500027  33.9700007  50.5400038
  60.8400011  34.0300012  48.7900019  61.6200018  35.8500028  49.5300007
  62.1500015  36.2100029  50.4100037  62.4500036  36.1300015  48.3700037
  62.4000025  37.1800017  48.1100035  63.5200024  35.9700012  48.5300016
  62.0400047  35.6000018  47.5100040  60.2400017  36.5400028  49.4300032
  59.5600033  36.1500025  48.6900043  59.8400021  36.4100027  50.4300022
  60.4900026  37.6000023  49.3700027  63.6700010  33.6300015  50.9200001
  64.5800018  34.4100022  50.9700012  63.4400034  32.7200007  51.9100046
  62.7500010  32.0300007  51.6400003  64.2900038  32.6200008  53.1100035
  64.2100048  33.5600019  53.6500025  63.7200022  31.6100025  54.0600014
  62.9800034  31.0000014  53.5200024  63.1500053  32.2000027  54.7700024
  64.6000051  30.6900024  54.7800016  64.9500036  30.9400010  56.0700035
  64.8300028  31.9000006  56.5600014  65.7800055  29.9700022  56.7300034
  66.1900043  30.1800013  57.7100039  66.0500050  28.7200022  56.1400032
  66.7100048  27.7400017  56.8500042  66.8800020  26.9200015  56.3900042
  65.6800032  28.4400010  54.8200035  65.9800053  27.5000024  54.3800020
  64.9600029  29.4500017  54.1100025  64.6700048  29.3100023  53.0800009
  65.7500029  32.2700024  52.7100039  66.6100025  33.0300021  53.1300020
  66.0800028  31.2300014  51.9200039  65.4000044  30.6200004  51.4900017
  67.4600029  31.0200024  51.3900042  68.1900024  30.8300018  52.1800041
  67.4900055  29.7200012  50.5300045  68.4400034  29.6500015  50.0200033
  66.7100048  29.7400022  49.7600031  67.3700047  28.3900023  51.4000034
  66.8800020  27.6500010  50.7800007  66.6600037  28.4400010  52.2100019
  68.7300014  27.9600024  51.9600010  69.4600010  28.7200022  52.6800013
  69.1100025  26.8100023  51.6600037  68.1000042  32.1000004  50.6100035
  69.2900038  32.3800015  50.8200026  67.2500038  32.8600025  49.8500013
  66.2700033  32.5800014  49.8500013  67.7100039  34.0800023  49.1000032
  68.6300039  33.7500024  48.6300039  66.6400051  34.5800018  48.1300020
  66.1500025  35.4800010  48.4900045  65.8600044  33.8200021  48.1800032
  67.0200014  34.6900010  46.6900015  66.6100025  33.6500025  45.8100033
  66.1300039  32.7400017  46.1400032  67.0000029  33.8200021  44.4700003
  66.5800047  33.1700015  43.7200022  67.7200031  34.9900007  44.0700006
  68.0500031  35.1300025  42.7300024  67.8200054  34.3800020  42.1800041
  68.1200027  35.9000015  45.0000000  68.6400032  36.7900014  44.7100019
  67.7200031  35.8000016  46.3000011  68.0000019  36.6200018  46.9400024
  68.0000019  35.2700019  50.0300026  68.9200020  36.0000014  49.7800016
  67.2100019  35.3900027  51.0700035  66.4600039  34.7400022  51.2100029
  67.3700047  36.4800024  52.0800018  67.5800037  37.4700022  51.6700029
  66.1300039  36.7400026  52.9000044  65.8200026  35.7700014  53.3000040
  66.3000011  37.3600006  53.7900019  65.3200054  37.1700025  52.3000002
  68.7100029  36.1800027  52.8900003  69.6900034  37.0200014  52.9900026
  68.8200045  35.0200009  53.5200024  68.0300045  34.3800020  53.4800005
  69.9600029  34.6900010  54.3300009  70.0700045  35.5500007  54.9900007
  69.7100019  33.4300017  55.1700020  68.9500046  33.6800027  55.9100008
  70.5700016  33.2400012  55.8200026  69.5100021  32.0700026  54.4100046
  70.3500032  31.3700008  54.4200039  69.2300034  32.3300004  53.3800030
  68.3300018  31.3600016  55.1200008  67.9200029  30.5900025  54.4800043
  67.5200033  32.0500016  55.4100037  68.8500023  30.7100010  56.3100004
  68.6200047  31.1500025  57.1800041  69.4900036  29.5400023  56.4200020
  69.5900011  28.7100005  55.3800011  69.4500017  29.1000009  54.4600010
  70.0100040  27.8000021  55.5200005  70.1000023  29.1800022  57.5300026
  69.9100018  29.6600008  58.4100008  70.5500031  28.2700014  57.5100040
  71.2500048  34.6100020  53.5500002  72.2600031  34.5000005  54.2400026
  71.2400055  34.7500014  52.1900034  70.3500032  34.8600006  51.7400026
  72.4800014  34.7200012  51.2900019  73.3100033  34.5400023  51.9700003
  72.4300051  33.4200025  50.4200029  73.2700014  33.4100008  49.7200012
  71.5400028  33.3900023  49.8000002  72.5500011  32.1300006  51.2600040
  71.8000031  32.0800018  52.0400047  73.5100031  32.1500015  51.8000031
  72.3200035  30.8500004  50.4300022  73.1400013  30.6100011  49.7400045
  71.4300013  31.0700011  49.8400021  71.9400024  29.6300006  51.2200022
  71.0500050  29.6400023  51.7100048  72.6900053  28.5700011  51.4500046
  73.8600016  28.4400010  50.9800005  74.4100046  29.1100025  50.4700041
  74.2300034  27.5100017  51.1700010  72.2200012  27.5700021  52.1600008
  71.2400055  27.6200008  52.4000025  72.5800037  26.6400003  52.1600008
  72.8400040  35.9400010  50.4300022  73.8900042  36.0100007  49.8000002
  71.9500017  36.9000006  50.4100037  71.0700035  36.6800022  50.8500004
  71.9400024  38.2500029  49.7500038  72.8900051  38.4300017  49.2700005
  71.0800028  38.2200027  48.4500027  71.1000013  39.2600012  48.1200027
  70.0500011  38.0200028  48.7500000  71.6400051  37.3300028  47.4000025
  72.7800035  37.5300026  46.6000032  72.9500055  36.4000010  45.8700037
  73.7800026  36.3000011  45.1800013  71.9800043  35.4800010  46.1800003
  71.8900013  34.5400023  45.8300018  71.2200022  36.0300016  47.1900034
  70.3900051  35.5800009  47.7000046  71.7100048  39.4200015  50.7000017
  70.5800056  39.9300027  50.8200026  72.6300049  39.8400021  51.5600014
  73.8600016  39.2200017  51.7600012  74.5000029  39.6900010  51.0100031
  73.9000034  38.1500030  51.5600014  74.2600012  39.4300008  53.2000017
  75.3500032  39.4600010  53.2100010  73.8100052  38.6600018  53.8200045
  73.7000036  40.8200026  53.4900045  74.4700050  41.5600014  53.3000040
  73.3600044  40.8300018  54.5300007  72.4400043  40.9899998  52.5500011
  71.4600039  40.8300018  53.0100012  72.4300051  42.3400021  51.9300032
  71.8000031  43.2300043  52.5500011  73.1200027  42.6100016  50.7700014
  73.6900043  41.9000006  50.3200006  73.1700039  43.9499998  50.1500034
  73.3100033  44.6800041  50.9700012  74.2500019  44.1000032  49.1400003
  75.1400042  44.1700029  49.7700024  74.1600037  44.9800014  48.5200024
  74.5000029  42.8700018  48.2900000  74.7400045  41.8300009  48.9200020
  74.5200014  42.9500008  47.0400000  71.8600035  44.3100023  49.4800043
  71.6800022  45.4700041  49.1100025  70.9600019  43.3500004  49.1700029
  71.1300039  42.4200010  49.5100021  69.6200037  43.6400032  48.4900045
  69.8800039  44.4099998  47.7500010  68.8600016  42.3699999  47.9400015
  67.8700018  42.6800013  47.6100016  68.7500048  41.6800022  48.7700033
  69.3900013  41.7200041  46.7100000  70.7500029  41.8100023  46.2800026
  71.4100027  42.4400043  46.8500042  71.1900043  41.2000036  45.1200008
  72.2100019  41.4200020  44.8400021  70.3600025  40.4700041  44.3000031
  70.8200026  39.9800014  43.1300020  70.3000021  39.2500019  42.8000021
  69.0200043  40.2700043  44.7900009  68.3600044  39.7100019  44.1400003
  68.5100031  41.0100031  45.9200001  67.4500036  40.9700012  46.1000013
  68.6200047  44.4600010  49.3500042  68.5100031  44.1000032  50.5600023
  67.7000046  45.2600002  48.8100004  67.6300049  45.5100012  47.8400040
  66.4700031  45.6100035  49.5700026  66.5700054  45.9000015  50.6100035
  65.7600021  46.8100023  48.9100027  66.5000010  47.6100016  48.8200045
  64.8800039  47.0200014  49.5200014  65.2100039  46.5100002  47.5900030
  65.3400040  47.3300028  47.0900011  65.5300045  44.4099998  49.5200014
  65.4700041  43.7800026  48.5100031  64.7700024  44.2500019  50.6000042
  64.9300051  44.7600031  51.4500046  63.7800026  43.1700039  50.5700016
  64.3400049  42.3500013  50.1000023  63.4000015  42.6900005  51.9900036
  62.8400040  41.7900038  51.7300034  64.6000051  42.2700024  52.8600025
  64.3100023  42.0400000  53.8800049  65.1700020  41.4300013  52.4500036
  65.2600050  43.1300020  52.9400015  62.5600052  43.6500025  52.8500032
  62.2400045  43.2500029  53.8000011  63.2100010  44.5000029  53.1100035
  61.7100048  44.0500021  52.3000002  62.6200008  43.4500027  49.6400023
  62.0000029  42.4800014  49.2400026  62.4700022  44.7500038  49.2500019
  62.9100037  45.4800034  49.7800016  61.5000010  45.0300026  48.1600046
  60.5600023  44.5300007  48.4300041  61.1900043  46.5300035  47.8600025
  62.0200014  46.9500017  47.2900009  59.8800039  46.7500019  47.0800018
  59.0300035  46.4300013  47.6900005  59.7300005  47.7800035  46.7900038
  59.9400043  46.2300014  46.1199999  61.0900021  47.4600029  49.0900040
  60.2500010  47.2300005  49.7400045  62.0200014  47.5400019  49.6600008
  60.8300018  48.4600019  48.7500000  61.8600035  44.4000006  46.8100023
  60.9800053  43.8600016  46.1700010  63.1200027  44.4400024  46.4600039
  63.7400007  44.8800039  47.1200037  63.6700010  43.7000036  45.3100014
  63.1000042  44.0500021  44.4600010  65.1600027  44.1700029  45.0900030
  65.6900024  43.9499998  46.0200024  65.1300049  45.2400017  44.8600006
  65.9100008  43.3600044  43.9800024  65.7600021  42.3200035  44.2500019
  65.3300047  43.6199999  42.5699997  65.4200029  44.6900034  42.4200010
  65.6400013  42.9700041  41.7400026  64.2700052  43.3700037  42.6800013
  67.4000025  43.6700010  44.0100002  67.3400021  44.7399998  43.8100004
  67.8400040  43.5400009  45.0100040  67.8500032  43.2000017  43.1400013
  63.5900021  42.1500015  45.3800011  63.1600046  41.5000010  44.4099998
  63.9100027  41.5300035  46.5200043  64.2800045  42.0500040  47.3100042
  63.5200024  40.1300001  46.7400026  64.0200043  39.4900012  46.0300016
  63.9700031  39.8400021  48.2100010  63.6500025  38.8100028  48.4000015
  63.4600019  40.5299997  48.8900042  65.5100012  39.9500012  48.4100008
  66.0400009  40.8599997  48.1200027  65.8100033  39.7000027  49.9000025
  66.8700027  39.7300029  50.1400042  65.3600025  40.5200005  50.4600000
  65.4500008  38.7100029  50.1500034  66.1900043  38.7600017  47.6700020
  66.3500023  38.9200020  46.6000032  67.2000027  38.7500024  48.0600023
  65.6300020  37.8300023  47.7800035  62.0400047  39.7800016  46.5700006
  61.7500019  38.7900019  45.9300041  61.1200047  40.6100035  47.0800018
  61.5000010  41.3800001  47.6100016  59.7300005  40.5100012  46.7500019
  59.3800020  39.5100021  47.0100021  58.8700008  41.4000034  47.6500034
  57.8400040  41.3100004  47.3300028  59.2400026  42.3900032  47.4000025
  59.0100050  41.1300039  49.1600037  60.0500011  40.8700037  49.3500042
  58.5400009  42.2700024  50.0400019  59.3900013  42.9300022  50.2400017
  57.9500008  42.9900026  49.4700003  58.0700016  42.0400000  50.9900045
  57.9600048  40.0200033  49.5500040  57.9200029  39.8900008  50.6400013
  56.9700050  40.3200006  49.2300034  58.2900047  39.1200018  49.0400028
  59.4100046  40.7600021  45.2400017  58.6800051  39.9300027  44.6900034
  60.0300026  41.6600037  44.4600010  60.7100010  42.2500038  44.9200010
  60.0000048  41.6200018  42.9500008  58.9800024  41.7200041  42.5900030
  60.8100033  42.8700018  42.3900032  60.7000017  42.7600002  41.3199997
  61.8400049  42.7700043  42.6800013  60.2400017  44.1400003  42.8299999
  60.2000046  44.1300011  43.9300013  59.2100048  44.2900038  42.4700022
  61.0100031  45.3000021  42.3200035  60.6500006  45.4300022  41.3000011
  62.0500040  44.9800014  42.3100042  60.7400036  46.5400028  43.1500006
  59.7900009  46.5600014  43.4800005  61.4300013  47.5800037  43.5300016
  62.6400042  47.8500032  43.1700039  63.0900049  47.2900009  42.4500036
  63.0500031  48.7300014  43.4300041  60.9200048  48.3900023  44.3500042
  60.0500011  48.0800009  44.7500038  61.3600016  49.2400026  44.6800041
  60.5400038  40.3200006  42.3600006  59.8800039  39.7800016  41.4200020
  61.6500044  39.6900010  42.8100014  62.0500040  40.1300001  43.6199999
  62.2000027  38.4300017  42.3400021  62.3500013  38.4400010  41.2700033
  63.4900045  38.0800009  43.1100035  63.7300014  37.0400023  42.9100037
  63.3400011  38.1400013  44.2000008  64.7600031  38.8500023  42.8400040
  64.8100042  39.8700023  43.2400036  65.8500051  37.9900026  43.5100031
  65.6000042  37.8300023  44.5600033  65.9300041  37.0400023  43.0000019
  66.7900038  38.5400009  43.4100008  64.9600029  38.8800025  41.3600016
  64.3700027  39.7100019  40.9600019  65.9500027  39.1100025  40.9700012
  64.6300030  37.9200029  40.9500027  61.1800051  37.3400021  42.6200008
  61.0000038  36.5700006  41.7000008  60.4700041  37.2700024  43.7400007
  60.7500029  37.8200006  44.5400000  59.4800043  36.2700009  43.9800024
  59.8400021  35.3000021  43.6300039  59.2200041  36.2400007  45.5400038
  58.4500027  35.5100012  45.7900000  60.1200008  36.0700011  46.1300039
  58.8300037  37.2300029  45.8200026  58.2000017  36.4600015  43.0400038
  57.7800035  35.4200006  42.4500036  57.7100039  37.7100015  42.8000021
  58.1400013  38.5100007  43.2500029  56.6900015  38.0200028  41.7900038
  55.8300018  37.3600006  41.9099998  56.4700031  39.5700026  41.6800022
  55.9400034  39.8100019  40.7600021  57.4600029  39.9700022  41.4900017
  55.8800030  40.3100014  42.9500008  55.8600044  41.4000034  42.8700018
  56.4900017  40.1800013  43.8400030  54.4400024  39.9400020  43.3200026
  54.3000031  40.5299997  44.2400026  54.4300032  38.8600016  43.4800005
  53.3800030  40.3299999  42.2300005  53.6900043  39.8700023  41.2800026
  53.2500029  41.4000034  42.0800018  52.0500040  39.9100018  42.6900005
  51.3400030  40.1600027  42.0100021  51.9500017  38.9100027  42.7200031
  51.7000008  40.3700018  43.5100031  57.0800018  37.4900007  40.3299999
  56.2900019  36.8400025  39.6700025  58.3000040  37.6900029  39.8800015
  58.9900017  38.1000018  40.4900026  58.7900019  37.1800017  38.6100030
  58.0200005  37.3500013  37.8600025  60.1600027  37.7400017  38.1600022
  60.9200048  37.2300029  38.7500024  60.4100037  37.5500011  36.6900015
  59.6600008  38.1400013  36.1700010  61.4200020  37.8500009  36.4300013
  60.2700043  36.4900017  36.4800024  60.2400017  39.1800022  38.3200026
  60.9400034  39.3000031  38.9700007  58.8300037  35.6800008  38.6700010
  58.3400011  35.0600028  37.7000022  59.4400024  35.0500011  39.7000027
  59.9500036  35.6100011  40.3700018  59.5400047  33.5900021  39.7800016
  59.9800014  33.2100010  38.8600016  60.3600025  33.1900024  41.0300016
  59.6900034  33.2600021  41.8900013  61.1700010  33.9100027  41.1100006
  60.8200026  31.7700005  40.9400034  60.6600046  30.8400011  42.0300007
  60.2200031  31.2100005  42.9500008  61.1300039  29.5300007  41.8400002
  61.1900043  28.9400005  42.7400017  61.7200041  29.0600014  40.6700039
  62.2200012  27.8900003  40.5900002  62.5400019  27.7200007  39.7000027
  62.0700026  30.0100017  39.6700025  62.6100016  29.6600008  38.8100028
  61.5800047  31.3600016  39.7900009  61.9400024  32.0900011  39.0800023
  58.1000042  32.9000020  39.6900010  57.7800035  32.0800018  38.8700008
  57.1700048  33.3300018  40.5900002  57.3300028  34.1400027  41.1899996
  55.7800007  32.7900004  40.5200005  55.8500004  31.7000008  40.5299997
  55.0300026  33.1300020  41.7900038  55.7200003  33.0700016  42.6300001
  54.2100048  32.4500012  42.0200014  54.4100046  34.5300007  41.8500042
  53.8900042  34.7700024  40.9200001  55.2200031  35.2400017  41.9700003
  53.5000038  34.5900011  43.0800009  52.3800039  34.0600014  43.0299997
  53.8400030  35.2200007  44.0700006  54.9900007  32.9800010  39.2100024
  54.2300034  32.0800018  38.7700009  55.1200008  34.1700006  38.5700011
  55.6400013  34.8800015  39.0600014  54.4400024  34.4900012  37.3000026
  53.4000015  34.1500020  37.3500013  54.2800045  36.0500026  37.0200014
  53.8000011  36.1300015  36.0600019  53.2800007  36.7900014  37.9400015
  53.8100004  37.5300026  38.5400009  52.5000048  37.3400021  37.4200010
  52.8100014  36.0500026  38.5800028  55.5700016  36.7000008  37.1200013
  55.8300018  36.6700006  38.0500007  55.0300026  33.6400008  36.1200023
  54.5200014  33.6000013  35.0000024  56.1800003  32.9300022  36.2700009
  56.6200018  33.0700016  37.1700025  56.7400026  32.0300007  35.2500010
  56.3700008  32.1900010  34.2400026  58.2500029  32.1100020  35.2300024
  58.7000036  32.0700026  36.2100029  58.8800049  31.0700011  34.3500018
  58.7600040  30.1400018  34.9000025  58.4200048  30.8800006  33.3800006
  59.9200010  31.3700008  34.2000008  58.5600042  33.3000016  34.6700025
  57.9700041  33.9700007  35.0200009  56.2500048  30.6000018  35.5900025
  55.7500029  29.9000025  34.7100019  56.3400030  30.1200008  36.8900013
  56.8500042  30.6400013  37.5900006  55.9900045  28.7600017  37.2000027
  56.5100050  28.1500006  36.4700007  56.3600016  28.4800005  38.6600018
  55.7900047  27.6500010  39.0700030  56.0600042  29.3400025  39.2500019
  57.9400015  28.4500003  38.7400007  58.4200048  29.4100022  38.6100030
  58.1700039  28.0400014  40.1999998  57.6600027  28.7700009  40.8400011
  57.8100014  27.0300007  40.3600025  59.2400026  28.1500006  40.3400040
  58.4900045  27.4200010  37.7300024  58.7000036  27.9000020  36.7800021
  59.3300009  26.9900012  38.2600021  57.7300024  26.6300011  37.6300025
  54.4800043  28.4200025  37.0200014  54.1600037  27.4300003  36.4000010
  53.5500002  29.3600011  37.2300029  53.8200045  30.2600026  37.5800014
  52.1500015  29.2200017  36.9900012  51.7100048  28.3600020  37.5100017
  51.4700031  30.5300021  37.4900007  51.8900013  31.3800025  36.9500017
  51.6600037  30.5200005  38.5700011  49.9600029  30.5900025  37.1800017
  49.5200014  29.6600008  37.5400019  49.7800016  30.6100011  36.1100006
  49.2400026  31.7100024  37.9000020  49.8600006  32.7700019  38.1200027
  48.0100012  31.5700006  38.1000018  51.8200016  28.9100003  35.4800010
  50.8000040  28.2400012  35.3400016  52.5600004  29.4700003  34.4900012
  53.3400011  30.0200009  34.8300028  52.3300028  29.3100023  33.0300021
  51.2700033  29.1600013  32.8300023  52.7800035  30.5300021  32.2200012
  52.5500011  30.3900003  31.1600018  53.8600016  30.6300020  32.1800017
  51.9500017  31.7400026  32.6700020  52.3200035  32.0400023  33.6500025
  50.8800030  31.5200019  32.6100016  52.0400047  32.8800011  31.6400003
  51.3500023  32.6000023  30.8500004  53.0800009  33.0400014  31.3700008
  51.6000032  34.1800022  32.2400022  50.5700016  34.0400004  32.5800014
  51.3400030  34.8700023  31.4300013  52.5300026  34.7500014  33.2200027
  53.2100010  35.3000021  32.7100015  51.9800043  35.3500009  33.8100004
  53.0300045  34.0300012  33.7400007  53.1200027  28.1300020  32.4000025
  52.5900030  27.3600006  31.6300011  54.3500042  27.9100013  32.8600025
  54.7000027  28.6000013  33.5200024  55.1800013  26.7200017  32.4800014
  55.1300049  26.6100001  31.3900018  56.6000032  26.9700003  32.8200006
  57.2300005  26.1000013  32.6600027  56.6000032  27.2700024  33.8700008
  57.4800014  28.2500005  31.9300008  54.8500013  25.3700018  33.1600022
  54.8500013  24.3100023  32.4800014  54.3800020  25.4100013  34.4700027
  54.3400049  26.3100004  34.9300027  53.8600016  24.1800022  35.1200008
  54.5800018  23.3700013  34.9800014  53.7400007  24.3600011  36.6700006
  53.4100008  23.3700013  36.9900012  53.0200005  25.1400018  36.9300008
  55.2300024  24.7500014  37.6200008  52.6000023  23.5400009  34.4700027
  52.1200037  22.4600005  34.8300028  52.0600033  24.3300009  33.5300016
  52.6400042  25.1300001  33.3100009  50.8200026  24.0200019  32.7200007
  50.2100039  23.2800007  33.2200027  49.9900007  25.3100014  32.5300026
  50.5400038  26.0500002  31.9600010  49.0800047  25.0400019  31.9800019
  49.7500038  25.7300019  33.4900022  51.1300039  23.3700013  31.4300013
  50.2400017  22.8900003  30.7400012  52.4300003  23.2800007  31.0700011
  53.1400013  23.6400008  31.6900015  52.8800011  22.6700020  29.7800016
  52.1400023  22.3400021  29.0500021  53.8300037  23.7000012  29.1100025
  53.3000040  24.6500015  29.0800023  54.7600031  23.8500023  29.6600008
  53.9000034  23.5200000  28.0300021  53.5700035  21.3000011  30.0300026
  53.9600039  20.8300018  31.1200023  53.7000036  20.5200005  28.9200020
  53.3200026  20.8899999  28.0700016  54.2700005  19.1300011  28.8500023
  53.7700033  18.4900010  29.5500016  54.0200043  18.6200011  27.3800015
  54.2900038  17.5700009  27.3400021  52.9600048  18.6700010  27.1000004
  54.6100044  19.2400014  26.7100024  55.8200026  19.0400004  29.0900016
  56.3100004  17.9600012  29.3200016  56.5900040  20.1200008  29.0900016
  56.1600018  20.9900022  28.8200021  57.8700018  20.1100016  29.7100019
  57.9600048  19.3900013  30.5100012  58.9300013  19.7900009  28.6500025
  58.9400005  20.5400014  27.8600001  58.6100006  18.8700008  28.1600022
  60.3600025  19.6700013  29.2000008  60.6200027  20.2300000  30.2700019
  61.0200024  18.8000011  28.6400008  58.0400038  21.5200019  30.3700018
  58.2400036  22.4900007  29.6300006  57.8600025  21.6000009  31.6800022
  57.2900009  20.4900002  32.4700022  58.0200005  19.7200012  32.7100015
  56.4800024  19.9700010  31.9700027  56.7700005  21.0800004  33.8200021
  56.9400024  20.4000020  34.6600008  55.7200003  21.3100004  33.6900020
  57.6900005  22.3300004  33.9100027  58.6000013  22.1700001  34.4800019
  57.1700048  23.1500006  34.4000006  58.0100012  22.8200006  32.4800014
  57.2800016  23.5900021  32.2300005  59.3900013  23.3300018  32.3700023
  59.5300007  24.5400023  32.3400021  60.4600048  22.5400019  32.3600006
  60.2800035  21.5799999  32.0800018  61.8400049  23.0000019  32.5500011
  61.8100023  23.9300013  33.1200027  62.6200008  21.8700004  33.2500005
  62.4700022  20.9200001  32.7400017  62.2500038  21.7600012  34.2800021
  64.1000032  22.2800016  33.4700012  65.0700045  22.0100021  32.5200009
  66.2200022  22.4100018  33.1000018  67.1900034  22.3400021  32.6300025
  65.9200048  22.9000020  34.3300009  66.6000032  23.2100010  35.0000024
  64.6100044  22.7700019  34.5900011  64.1300011  22.9100013  35.5400014
  62.4100018  23.5000014  31.2000012  63.2500029  24.4600010  31.2400007
  61.9500017  22.8700018  30.1100016  61.4000034  22.0200014  30.1500010
  62.2200012  23.4500003  28.7500024  63.2800007  23.7000012  28.7100005
  62.1000051  22.4000001  27.6400018  61.0500050  22.1300006  27.5500011
  62.6800013  21.5300012  27.9400015  62.6700020  22.8299999  26.3000011
  63.7100029  23.1300020  26.4600015  62.1000051  23.6400008  25.8400011
  62.6800013  21.6600013  25.2500010  63.2000017  20.5700016  25.5700016
  62.2100019  21.8200016  24.0800023  61.3300037  24.7000003  28.4600019
  61.8300009  25.6100011  27.8200006  60.1700020  24.8800015  29.1000009
  59.6400023  24.1900015  29.5900011  59.5300007  26.2200022  29.1700006
  59.5000029  26.5500021  28.1300020  58.1000042  26.1000013  29.5700026
  58.1300020  25.5400014  30.5000019  57.6200008  25.5200005  28.7800002
  57.1800041  27.7000022  29.8900008  60.2700043  27.2400022  30.1200008
  60.4500008  28.3600020  29.6100020  60.7000017  26.8900013  31.3200021
  60.3800011  26.0100007  31.6900015  61.3100052  27.9000020  32.2700024
  60.8700037  28.8300014  31.9500017  60.7100010  27.8200006  33.6900020
  59.6300030  27.9400015  33.6700010  60.9500027  28.7100005  34.2600012
  60.9700012  26.5600014  34.5300007  62.2300053  26.3100004  35.0300026
  63.0200052  26.9700003  34.7100019  62.5300026  25.1500010  35.8100009
  63.5600042  24.9800014  36.0500026  61.4900017  24.2800021  36.1100006
  61.6900015  23.1200004  36.6800022  60.9100008  22.5700021  36.6400027
  60.1600027  24.5500016  35.6500006  59.4100046  23.8500023  36.0000014
  59.8900032  25.7500005  34.9400020  58.8800049  25.8900023  34.5900011
  62.8300047  28.1800008  32.1900010  63.3200026  28.8300014  33.1000018
  63.4900045  27.8800011  31.1100006  63.1300020  27.1800017  30.4900026
  64.9500036  28.1400013  30.9000015  65.4400015  27.5300002  31.6700006
  65.4200029  27.5600004  29.6000004  66.4900017  27.7400017  29.5000005
  65.3800011  26.4700007  29.6000004  64.9900007  28.1000018  28.7600017
  65.3900051  29.6200013  30.9600019  66.5800047  29.8600006  31.1200023
  64.5100021  30.5800009  30.7400012  63.5500050  30.3400016  30.5400014
  64.8300028  32.0500016  30.8900023  65.8900023  32.1100020  30.6700015
  63.9800024  32.8600025  29.8600006  64.0700054  32.2400022  28.9700007
  64.5200014  33.7500024  29.5500016  62.5500011  33.2800007  30.2300024
  62.5500011  34.0300012  31.0200024  61.9800043  32.3900008  30.4700017
  62.0300007  33.9800024  28.9800024  62.0700026  33.3500028  28.1000018
  62.6000023  34.9000025  28.7800002  60.6200027  34.4000006  29.2500019
  60.4000044  35.3600025  28.8000011  60.6200027  34.5800018  30.3200006
  59.6300030  33.2800007  28.8500023  59.7800016  32.8600025  27.9400015
  59.5900011  32.5300026  29.5200014  58.6800051  33.6400008  28.8400006
  64.7800016  32.7000022  32.2300005  65.1500034  33.8900018  32.2300005
  64.3000031  32.0800018  33.2900023  64.0100050  31.1100006  33.3000016
  63.8200045  32.9200006  34.4600010  63.3300018  33.8100004  34.0600014
  62.7700043  32.1600008  35.2600026  61.9800043  31.8600011  34.5700026
  63.2300043  30.8700013  36.1100006  63.8500023  31.2700009  36.9000006
  62.3600006  30.3800011  36.5300012  63.7700033  30.1500010  35.5000019
  61.9100046  33.0100012  36.1100006  62.3700047  33.2500005  37.0700026
  61.5300035  33.8600016  35.5400014  61.0700035  32.3300004  36.3100028
  64.9300051  33.3700013  35.4300022  64.9200010  34.5900011  35.7700014
  65.9700012  32.5500011  35.6300020  65.9800053  31.7200017  35.0400019
  67.1000051  33.0300021  36.4100027  66.8700027  33.5400009  37.3500013
  67.9500055  31.8800020  36.8100023  68.7900019  32.2800016  37.3800015
  68.3600044  31.3400006  35.9600019  67.2700024  30.9300017  37.7400017
  66.6800022  29.7600007  37.2700024  66.6700029  29.5700026  36.2000012
  65.9300041  28.9200020  38.1400013  65.4700041  27.9600024  37.9700017
  65.8100033  29.2700005  39.5100021  65.2900028  28.5600019  40.1400042
  66.2300014  30.4900026  39.9500012  66.0300016  30.8300018  40.9600019
  66.9600010  31.3200021  39.0700030  67.3500013  32.2400022  39.4500017
  67.7900028  34.1500020  35.5700016  68.4000015  35.0100017  36.1500025
  67.7600050  34.1900015  34.2100024  67.2700024  33.4600019  33.7000012
  68.3300018  35.3400016  33.5200024  69.1800022  35.7500029  34.0600014
  68.7400055  34.7900009  32.1900010  69.2100048  35.5300021  31.5600014
  67.8500032  34.4600010  31.6500020  69.7900057  33.6100006  32.3800015
  70.8600044  33.9200020  32.9200006  69.4100046  32.4900007  32.1000004
  67.3300028  36.4600015  33.2800007  67.7700043  37.5400019  32.9300022
  66.0300016  36.4000010  33.7500024  65.7700014  35.4400015  33.9700007
  65.0700045  37.4300027  33.6600018  65.2600050  38.0600023  32.7900004
  63.6200047  36.8600011  33.3900023  63.2800007  36.4000010  34.3300009
  63.6800051  35.9800029  32.7600026  62.6700020  37.8700018  32.8000021
  62.5100040  38.8400030  33.2700014  61.6900015  37.4700022  33.0900025
  62.8100014  38.0900025  31.3000011  61.8300009  38.3700013  30.5900025
  63.9000034  37.9800010  30.7300019  65.0400019  38.2700014  34.9300027
  64.5200014  39.3400025  35.0200009  65.8500051  37.9100013  35.9300017
  66.1700010  36.9500017  36.0100007  66.1600018  38.7600017  37.0400023
  65.2500010  39.2700028  37.3600006  66.6700029  37.8200006  38.1900024
  66.7900038  38.4700012  39.0600014  67.6400042  37.4400020  37.8600025
  65.7800055  36.6700006  38.7000012  64.3900013  36.6800022  38.3800030
  63.9600039  37.4200010  37.7200007  63.6200047  35.6600022  38.9000010
  62.6100016  35.6400013  38.5200024  64.1500044  34.6900010  39.7300029
  63.5300016  33.8800025  40.1000023  65.5300045  34.6900010  40.0300026
  65.9200048  33.8900018  40.6500006  66.3500023  35.6800008  39.4900012
  67.4000025  35.7100010  39.7200012  67.1600056  39.8900008  36.6900015
  67.3200035  40.8100033  37.4700022  67.8700018  39.7800016  35.5500007
  67.5200033  39.1100025  34.8900008  69.0500021  40.6100035  35.2800012
  69.6500015  40.3400040  36.1400008  69.6800041  40.1700020  33.9300013
  70.3000021  40.9800005  33.5500026  68.8900042  39.9600029  33.2100010
  70.6400013  38.9500022  33.9600015  70.2400017  38.1500030  34.5900011
  71.5000057  39.2400026  34.5600009  71.1800051  38.4500027  32.6200008
  71.9400024  39.0800023  32.1500015  70.3000021  38.4700012  31.9800019
  71.6100025  36.9500017  32.7200007  70.7400036  36.3300014  32.9100013
  72.2900057  36.7600012  33.5500026  72.2300053  36.3900018  31.5200019
  71.6600037  36.4600015  30.6900024  73.0700016  36.9500017  31.4600015
  72.4900055  35.4300022  31.7300010  68.8500023  42.1400023  35.2800012
  69.6000051  42.8299999  35.9700012  67.8900051  42.6999998  34.5400023
  67.1200037  42.0400000  33.4900022  66.5400028  41.1899996  33.8500023
  67.7100039  41.8000031  32.6000023  66.0200024  43.0600023  33.1000018
  65.1900053  43.0100012  33.8100004  65.7400036  42.9900026  32.0500016
  66.7000055  44.4000006  33.2900023  66.0100031  45.1999998  33.5700011
  67.2200012  44.7500038  32.4000025  67.6300049  44.1600037  34.5600009
  68.5200024  44.7700024  34.3600011  67.0300055  44.6800041  35.8100009
  67.2100019  45.8200026  36.2000012  66.2600040  43.8500023  36.5000010
  66.3100052  42.8900003  36.2000012  65.4200029  44.1400003  37.6800013
  64.9600029  45.1200008  37.5900006  64.4000053  43.0299997  37.7700019
  64.9300051  42.0900011  37.6300025  63.7600040  43.0200005  36.9000006
  63.5000038  42.7800035  39.0000010  64.2200041  42.6700020  39.8200011
  62.4800014  43.9499998  39.1600013  62.1200037  44.0400028  40.1900005
  62.9800034  44.9000025  38.9900017  61.6200018  43.8100004  38.5200024
  62.6900053  41.5200043  38.7200022  63.3000040  40.7100010  38.3400011
  62.1700048  41.2400007  39.6500015  61.9900036  41.7500019  37.9100013
  66.2700033  44.2100000  38.9800024  66.0600042  45.0500011  39.8800015
  67.4000025  43.5600042  39.0300012  67.6100016  42.9100037  38.2800007
  68.4000015  43.5800028  40.1600027  67.8000021  43.8200045  41.0500002
  69.0800047  42.2200012  40.4500008  69.6700048  42.3200035  41.3700008
  68.0000019  41.1199999  40.7100010  67.4600029  41.4000034  41.6200018
  67.4100018  40.8300018  39.8400021  68.4500027  40.2100039  41.1100006
  70.0200033  41.7600012  39.3700027  70.8300018  42.4800014  39.2600012
  70.4200029  40.7600021  39.5600009  69.5000029  41.7500019  38.4100008
  69.4600010  44.6000004  39.9600029  70.1900053  44.9400043  40.8800030
  69.6200037  45.0500011  38.7300014  69.0500021  44.6500015  38.0000019
  70.5500031  46.0600042  38.2900023  71.4200020  45.9800005  38.9400029
  71.1100054  45.7400036  36.9200015  70.3800011  45.7000017  36.1100006
  71.5400028  44.7399998  36.9500017  72.2300053  46.7200041  36.5900016
  73.0100012  46.5700006  37.3400021  71.8600035  47.7400017  36.5600014
  72.8200054  46.4400005  35.2300024  73.1700039  47.3900032  34.5400023
  73.0200052  45.3100014  34.7900009  70.1000023  47.5100040  38.4600019
  70.8900023  48.2600021  38.9500022  68.9200020  47.8500032  37.9500008
  68.3500051  47.1300030  37.5500011  68.3500051  49.2900038  38.0900025
  68.8600016  49.8800039  37.3200011  66.8600035  49.2600012  37.7300024
  66.2700033  48.8700008  38.5700011  66.7000055  48.7400007  36.8000007
  66.3800049  50.6600046  37.4300027  66.7800045  51.0000038  36.4700007
  66.6700029  51.3700008  38.2000017  64.8700047  50.6600046  37.3500013
  64.2400026  50.8300018  36.2700009  64.2600012  50.3700018  38.4200025
  68.4600019  49.9800014  39.4000030  69.0700054  51.0800028  39.3600011
  68.1800032  49.3800020  40.6000042  67.5900030  48.0600023  40.8900023
  68.3900023  47.3800039  40.5600023  66.6000032  47.9200029  40.4600000
  67.6100016  47.9700041  42.4300003  68.6100054  47.7600002  42.7800035
  66.9000053  47.2600031  42.8299999  67.3200035  49.4500017  42.8600025
  67.6000023  49.6800041  43.8900042  66.2800026  49.7000027  42.6900005
  68.2200050  50.1600027  41.8700027  67.7000046  51.1200047  41.7799997
  69.6500015  50.4100037  42.2600031  69.9500036  51.3900042  42.9800034
  70.6100035  49.6000004  41.8200016  70.4300022  48.9900017  41.0400009
  72.0200014  49.7600031  42.1800041  72.0000029  50.0200033  43.2400036
  72.7300024  48.3700037  42.1400023  73.7400055  48.5700035  42.4900007
  72.8300047  47.9100037  41.1500025  72.2300053  47.2700024  43.0900002
  71.2300014  46.9900036  42.8100014  72.2200012  47.6300001  44.1200018
  73.1700039  46.0500002  43.0400038  74.1800022  45.9500027  43.7000036
  72.9400015  45.0300026  42.1800041  72.0500040  45.1200008  41.7000008
  73.7300014  44.4400024  42.0100021  72.8200054  50.8600044  41.4200020
  73.8400030  51.3500023  41.9200039  72.3600054  51.1700010  40.1900005
  71.5700054  50.6800032  39.8000026  72.7900028  52.3000002  39.4700027
  73.8400030  52.3900032  39.7500014  72.6600027  52.0500040  37.9400015
  71.6200018  51.7700005  37.8200006  73.2700014  51.2200022  37.6000023
  73.1100035  53.2400036  37.1400023  74.2100048  53.7200022  37.3600006
  72.1900034  53.8200045  36.4100027  71.2300014  53.5100031  36.4800024
  72.4700022  54.6000004  35.8300018  71.8400049  53.5500002  39.8000026
  72.3400021  54.6400023  40.0900030  70.5400038  53.4100008  39.7400022
  70.2400017  52.5300026  39.3200016  69.5800018  54.4100046  40.1400042
  69.6800041  55.1500034  39.3500018  68.1100035  53.8700008  39.9800014
  68.0900049  52.8600025  40.4100037  67.9600048  53.6300039  38.9400029
  66.9900036  54.8000050  40.4500008  67.1900034  55.2700043  41.4100027
  66.8700027  56.0300016  39.5200014  66.7100048  55.6900024  38.5000014
  66.1200047  56.7300034  39.8600030  67.8200054  56.5700006  39.5800018
  65.7200050  54.0000010  40.5700016  65.8700037  53.1400013  41.2300014
  64.9600029  54.7200012  40.8700037  65.4700041  53.5200024  39.6300030
  69.8300028  55.0800037  41.5000010  69.7800016  56.3500023  41.7000008
  70.0300026  54.3400049  42.5900030  70.1600027  53.3500004  42.5000000
  70.1300049  54.9900007  43.9100027  69.3800020  55.7700014  43.9499998
  69.8200035  53.9300013  45.0500011  70.2600050  52.9800034  44.7399998
  70.4600048  54.3700027  46.3700008  70.2500010  53.6800003  47.1800041
  71.5600014  54.4000006  46.3100004  70.1400042  55.3900003  46.5900040
  68.3200026  53.6600018  45.3700018  67.9900026  54.5000029  45.9900045
  68.3000040  52.7200031  45.9100008  67.3600054  53.5400009  44.2000008
  66.4000034  53.2000017  44.5600033  67.1900034  54.5000029  43.7200022
  67.7400017  52.8800011  43.4200001  71.4300013  55.7600021  43.9499998
  71.4500046  56.9900036  44.2700005  72.5100040  55.1800013  43.4100008
  72.3600054  54.3500042  42.8500032  73.8500023  55.8500004  43.2700014
  74.1000032  56.1000013  44.3000031  74.9500036  54.8600006  42.7100039
  74.7100019  54.5600033  41.6900015  74.9700022  54.0000010  43.4000015
  76.3000059  55.5200005  42.8500032  76.3300037  56.4900017  42.3699999
  77.0500040  54.8800039  42.3800039  76.7800045  55.5900049  44.2600012
  76.7700052  54.6000004  44.7000027  76.2800026  56.3700008  44.8500013
  78.2600021  56.0700035  44.1200018  78.1900024  57.0200014  43.6000013
  78.8400030  55.3400040  43.5600042  78.9800024  56.1900043  45.4000044
  79.9600029  56.3700008  45.2200031  78.6900043  56.8600035  46.0900021
  78.9400053  55.3200006  45.9000015  73.7700033  57.1100044  42.4500036
  74.4800043  58.0300045  42.8000021  72.8600025  57.2200012  41.5100002
  72.5100040  56.3500023  41.1500025  72.6700020  58.4000015  40.6100035
  73.6300039  58.8200045  40.2700043  71.8700027  58.0500031  39.3000031
  71.4200020  58.9800024  38.9400029  71.1400032  57.3300028  39.6600008
  72.6700020  57.4400043  38.1800008  71.9200039  57.1200037  37.4400020
  73.2300043  56.5300035  38.4100008  73.5600042  58.4400034  37.4800014
  73.9500046  59.4900036  38.0000019  74.0100050  58.0900049  36.2900019
  73.6900043  57.2300005  35.8700013  74.7600031  58.6300039  35.8900023
  72.1100044  59.6100044  41.3400030  72.4000025  60.7700014  40.9700012
  71.1400032  59.3600035  42.2700024  70.8700037  58.3900023  42.4300003
  70.4200029  60.4100037  43.0100012  70.4400015  61.2800026  42.3699999
  69.0200043  60.0300026  43.3200026  68.5100031  60.7700014  43.9400005
  69.1000032  59.1000032  43.9000034  68.1900024  59.9900007  42.1099997
  67.7200031  61.0000038  41.5700006  67.9300022  58.8100004  41.6300011
  68.3700037  57.9500008  41.9300032  67.2200012  58.7500048  40.9100008
  71.2300014  60.7300043  44.2700005  71.3000011  61.9400024  44.6500015
  72.0000029  59.7700024  44.8000002  71.9000053  58.8400030  44.4099998
  73.0900049  60.0900030  45.7100010  72.6700020  60.7700014  46.4500046
  73.5300016  58.7600040  46.3100004  74.4300032  58.9900017  46.8800020
  73.6500025  58.0100012  45.5300045  72.3600054  58.0700016  47.5100040
  74.2900038  60.8300018  45.0300026  74.7900057  61.6800022  45.7200003
  74.7400045  60.5800009  43.8100004  74.4500017  59.7000027  43.4000015
  75.7200050  61.5100050  43.1200027  76.5600014  61.6400051  43.8100004
  76.2100029  60.9500027  41.8000031  75.3800058  60.7700014  41.1300039
  76.5400028  59.9200010  41.9900036  77.3100042  61.7200041  41.1400032
  78.3100033  61.7400026  41.5700006  76.9300032  62.7400017  41.0700035
  77.6100016  61.0800028  39.8000026  77.5000048  61.7800045  38.7900019
  77.9900026  59.8800039  39.6800017  75.1700020  62.9500008  42.9500008
  75.8900023  63.8900042  43.0200005  73.8700056  63.1400013  42.9000044
  73.3500051  62.2700024  42.9700041  73.1500053  64.4400024  42.8200006
  73.8000011  65.1200008  42.2700024  71.7900038  64.2300034  42.0900011
  71.1300039  63.6200047  42.7200031  71.9500017  63.7300014  41.1400032
  71.0700035  65.5400038  41.6700029  70.9000015  66.1100054  42.6000023
  71.8900013  66.4500046  40.7300043  72.6500034  66.9400024  41.3300037
  72.3500013  65.7400036  40.0500011  71.2600040  67.2100019  40.2400017
  69.7500038  65.3600025  41.0300016  69.2200041  66.3100052  40.9000015
  69.7600031  64.8200035  40.0900030  69.1500044  64.7400045  41.7000008
  73.0400038  65.1300049  44.2200041  73.0900049  66.3500023  44.3400002
  72.8600025  64.3800020  45.2900028  72.6700020  63.4200048  45.1000023
  72.7700043  64.7700024  46.7100000  72.0700026  65.6000042  46.8100023
  72.2400045  63.6200047  47.5700045  72.9800034  62.8500032  47.3600006
  71.2700033  63.2700014  47.2200012  72.2400045  63.7800026  49.0400028
  71.2600040  64.6300030  49.6300030  70.4900026  65.0600052  49.0100002
  71.2600040  64.8500013  51.0500002  70.6100035  65.5600023  51.5400028
  72.2500038  64.1800022  51.8000031  72.2300053  64.3000031  52.8700018
  73.1900024  63.3100033  51.1900043  73.9900017  62.8200006  51.7400026
  73.1800032  63.1700039  49.8100042  73.9900017  62.6200008  49.3700027
  74.1800022  65.2200031  47.2100019  74.3300056  66.1600018  48.0500031
  75.3100014  64.6500015  46.6800022  75.2200031  63.9300013  45.9900045
  76.6200018  65.1400042  46.7800045  76.7600060  65.3600025  47.8400040
  77.5000048  63.9200020  46.3900042  78.4800053  64.3200016  46.0900021
  77.0400047  63.4700012  45.5000019  77.6300049  62.8700018  47.5000000
  76.6300058  62.5300026  47.7600002  78.0900049  63.3100033  48.3800030
  78.4600019  61.6300011  47.0200014  79.0200043  60.8300018  47.8299999
  78.4600019  61.3100052  45.8000040  76.8900013  66.3400030  45.8900023
  78.0100060  66.8800020  45.9500027  76.0200024  66.8000031  45.0000000
  75.2100039  66.2200022  44.8400021  76.3800049  67.8400040  44.0200043
  77.4000025  68.1700039  44.1400003  75.9700060  67.2800016  42.6600027
  74.9200058  67.4900055  42.4700022  76.0800028  66.2000036  42.7200031
  76.8100023  67.7000046  41.4700031  77.8700018  67.5200033  41.6700029
  76.9000053  68.7700033  41.2800026  76.4600039  66.9500017  40.1800013
  75.7800055  67.3900032  39.2200017  76.6200018  65.6400013  40.1800013
  77.0500040  65.2400017  40.9899998  76.2200022  65.0900030  39.4300008
  75.6500053  69.1700029  44.3900013  76.0400057  70.2300024  43.8900042
  74.5800018  69.0900040  45.1600027  74.3800020  68.2000017  45.6100035
  73.6200047  70.2300024  45.3500032  74.1400051  71.1300039  45.0300026
  72.4600029  70.0100040  44.4400024  71.6500044  70.7100010  44.6600008
  72.0500040  69.0200043  44.5600033  72.6000023  70.2200031  42.9100037
  73.3300018  69.4900036  42.6000023  71.3200045  69.8300028  42.1800041
  71.1000013  68.8000011  42.4500036  70.5200052  70.5200052  42.4900007
  71.4900017  69.9000025  41.1100006  73.1600046  71.5500021  42.4700022
  72.5000048  72.3800039  42.6999998  74.1200018  71.7900038  42.9400015
  73.3000040  71.6000032  41.3900042  73.2800055  70.3700018  46.8200016
  73.0100012  69.4100046  47.4600029  73.1400013  71.5900040  47.3600006
  73.4200048  72.4000025  46.8100023  72.5500011  71.8600035  48.6300039
  72.5800037  72.9400015  48.8000011  73.2400036  71.3000011  49.2600012
  71.0700035  71.4400053  48.6600018  70.5000019  71.2500048  47.5800037
  70.3600025  71.5100050  49.8200035  70.8700037  71.8000031  50.6400013
  69.0200043  70.8800030  49.9300003  69.1500044  69.9200010  49.4300032
  68.6400032  70.6200027  51.4200020  68.4200048  71.6000032  51.8400002
  69.5000029  70.2000046  51.9400024  67.4300051  69.6500015  51.4500046
  67.8200054  68.7300014  51.0000038  66.6400051  70.0100040  50.7800007
  66.9900036  69.5300055  52.9400015  67.4700022  68.6200047  53.6600018
  66.2300014  70.3900051  53.4200048  67.9700041  71.5600014  49.0200043
  67.1800041  70.8500051  48.4500027  67.9900026  72.8800058  48.8700008
  68.7500048  73.4400034  49.2500019  66.9000053  73.5000038  48.0800009
  65.8700037  73.1400013  48.1600046  66.9000053  75.0300026  48.4400034
  67.9100037  75.4400015  48.4700012  66.5100050  75.1600027  49.4500017
  66.0700035  75.9000015  47.6100016  64.6400023  75.9500027  47.6800013
  64.2100048  75.3200054  48.4400034  63.9000034  76.9900036  47.0200014
  62.8200006  76.9800043  47.1200037  64.5700026  78.0100060  46.3600016
  63.9100027  78.9900017  45.7600021  64.4300032  79.3600035  45.0500011
  66.0200024  77.9500055  46.2600040  66.4800024  78.6900043  45.6200027
  66.7100048  76.9000053  46.8200016  67.7600050  76.8200016  46.6100025
  67.0800018  73.3300018  46.5799999  66.2200022  72.8000021  45.8000040
  68.3500051  73.5500050  46.1600018  68.9800024  73.8600016  46.8800020
  68.7900019  73.4200048  44.7399998  68.2000017  74.0600014  44.1000032
  70.3000021  73.7000036  44.5000029  70.6800032  73.4400034  43.5100031
  70.8100033  73.0300045  45.1999998  70.6400013  75.1700020  44.8300028
  70.4500055  75.2800035  45.9000015  70.0500011  75.8100033  44.1700029
  72.0700026  75.2900028  44.3400002  72.1900034  75.4900026  43.2700014
  72.6100016  74.3600035  44.5200014  72.8300047  76.4300013  45.0900030
  73.8800049  76.2900019  44.9100018  72.6800013  76.3300037  46.1700010
  72.4000025  77.7400017  44.6400023  72.9000044  78.5200024  45.0400019
  72.5600052  77.9300022  43.6700010  71.4200020  77.8700018  44.8300028
  68.5200024  71.9600058  44.3200016  68.0100012  71.7400026  43.2300043
  68.8100052  71.0400057  45.1600027  69.1600037  71.3100052  46.0700035
  68.4600019  69.6000051  45.0100040  68.9500046  69.2500019  44.1000032
  69.1200018  68.8600016  46.1700010  68.7000036  69.2400026  47.1100044
  70.1700020  69.1100025  46.1900043  68.9600039  67.3800039  46.1800003
  69.5600033  66.5400028  45.1900005  70.1500034  67.0200014  44.4200039
  69.5200014  65.1500034  45.2500010  69.9300051  64.4900036  44.4900036
  68.9300013  64.6000051  46.4200020  68.9600039  63.5200024  46.4600039
  68.2900047  65.3900051  47.3400021  67.6200008  64.9600029  48.0800009
  68.3000040  66.7700052  47.2300005  67.7300024  67.3300028  47.9600000
  67.0000029  69.2900038  44.8500013  66.5800047  68.7300014  43.8100004
  66.1500025  69.6400023  45.8000040  66.5300035  70.1300049  46.6000032
  64.6600008  69.7300053  45.6000042  64.1800022  68.7500048  45.6200027
  63.9200020  70.5300045  46.7500019  62.9100037  70.8100033  46.4400005
  64.4700050  71.4700031  46.7900038  64.0300035  69.9200010  48.1600046
  65.0200033  69.5300055  48.3800030  63.3100033  69.1000032  48.2600021
  63.6700010  70.9200048  49.1900015  63.3800030  72.0400047  48.9100027
  63.6000013  70.5300045  50.4100037  63.6100054  69.5600033  50.7100010
  63.6300039  71.2500048  51.1300039  64.1300011  70.3400040  44.3000031
  63.2200050  69.7500038  43.7200022  64.8200035  71.3900042  43.8500023
  65.6000042  71.7400026  44.3700027  64.4000053  72.0200014  42.5900030
  63.3100033  72.0200014  42.5900030  64.9800014  73.4400034  42.4900007
  64.6900034  73.8200045  41.5100002  66.0700035  73.4900045  42.4800014
  64.5200014  74.3400049  43.6100006  63.4700012  74.3100023  44.1200018
  65.2800035  75.3200054  44.0200043  66.2400055  75.4300022  43.7500000
  64.8300028  76.0100031  44.6000004  64.8100042  71.1800051  41.3700008
  64.2300034  71.2000036  40.3200006  65.8900023  70.4500055  41.4600039
  66.3200045  70.5900049  42.3699999  66.4400053  69.5300055  40.4400015
  66.4400053  70.0500011  39.4800019  67.9100037  69.1000032  40.8100033
  67.9200029  68.4700012  41.7000008  68.2200050  68.4400034  39.9900007
  68.4900045  70.0000048  40.9100008  65.5400038  68.2800055  40.2900028
  65.5600023  67.6300049  39.2500019  64.8300028  67.9400015  41.3400030
  64.8400021  68.5000038  42.1800041  63.9200020  66.7800045  41.3900042
  64.2900038  66.0200024  40.7100010  63.9800024  66.1600018  42.8100014
  63.2700014  65.3600025  43.0000019  63.7600040  66.9300032  43.5500002
  65.3800011  65.6200027  43.1500006  66.1300039  66.3900042  43.0100012
  65.4200029  65.2200031  44.6200037  66.2300014  64.5400047  44.9000025
  65.5300045  66.1700010  45.1600027  64.4600010  64.8300028  44.9200010
  65.7300043  64.4000053  42.2800016  65.7100010  64.5700026  41.2200022
  66.7800045  64.1600037  42.4300003  65.1900053  63.4800053  42.5300026
  62.5100040  67.2400045  41.0300016  61.8600035  66.5500021  40.2800035
  62.1400023  68.4800053  41.3700008  62.6800013  68.8500023  42.1400023
  60.8700037  69.0900040  41.2100029  60.2200031  68.4000015  41.7400026
  60.7800007  70.3600025  41.9700003  61.5700006  70.9800053  41.5400028
  61.0400009  70.2300024  43.0200005  59.5300007  71.2200022  41.9000006
  59.1800022  71.3600016  40.8800030  58.4800005  70.4400015  42.7100039
  58.3100033  69.5000029  42.2000027  58.9200020  70.3100014  43.7000036
  57.4900007  70.8800030  42.7600002  59.6800041  72.5700045  42.6000023
  60.5300045  73.1400013  42.2200012  58.7500048  73.1200027  42.4400043
  59.7100019  72.3700047  43.6700010  60.6000042  69.3100023  39.7200012
  59.4700050  69.1500044  39.2400026  61.6100025  69.6600056  39.0000010
  62.4800014  69.7200012  39.5000029  61.5800047  69.7100019  37.5100017
  60.8400011  70.4600048  37.2400022  62.9400015  70.2500010  37.0400023
  63.6100054  69.5400047  37.5300026  62.9900026  70.2100039  35.4400015
  63.0500031  69.1700029  35.1200008  62.1400023  70.6700039  34.9600005
  63.8700008  70.7800055  35.1300025  63.0800009  71.6800022  37.4600029
  64.1100025  72.0200014  37.3700023  62.4900007  72.2500038  36.7400026
  62.7700043  71.8100023  38.4900022  61.2000036  68.3800030  36.8100023
  60.4800034  68.4100056  35.8300018  61.6300011  67.2500038  37.4200010
  61.9600010  67.3700047  38.3700013  61.4600039  65.8700037  36.9500017
  61.3600016  65.8800030  35.8600020  62.5800037  64.9400043  37.3900008
  62.1900034  63.9500046  37.6100016  62.8900051  65.3300047  38.3700013
  63.8300037  65.0200033  36.3900018  64.2100048  66.0500050  36.3700008
  63.5500050  64.5700026  35.4500008  64.9300051  64.1400051  36.9000006
  64.9800014  64.2900038  37.9800010  65.8700037  64.5500040  36.5200019
  64.6800041  62.7800035  36.5200019  64.3600035  62.5300026  35.5900025
  64.5900011  61.7800045  37.3400021  65.1800013  61.8000031  38.5000014
  65.7500029  62.6100016  38.7100029  65.2800035  60.9600019  39.0400028
  63.9900017  60.6900024  36.9500017  63.6200047  60.5800009  36.0100007
  63.9500046  59.9500036  37.6500010  60.1200008  65.2500010  37.4000025
  59.2600012  64.9100018  36.5900016  59.8800039  65.4100037  38.7100029
  60.6500006  65.6900024  39.3100023  58.6900043  64.9300051  39.3200016
  58.5500050  63.9000034  38.9900017  58.9000034  64.8400021  40.8599997
  58.0100012  64.4800043  41.3700008  59.1100025  65.8400011  41.2500000
  59.9900007  63.9400053  41.3100004  60.5500031  62.8500032  40.5299997
  60.2200031  62.8100014  39.5000029  61.5900040  62.0200014  40.9400034
  61.9400024  61.1700010  40.3700018  62.1500015  62.2800016  42.1800041
  63.1800032  61.4800024  42.5500011  63.2000017  60.5800009  42.2100019
  61.5900040  63.2700014  42.9800034  62.1300030  63.4200048  43.9000034
  60.6000042  64.1100025  42.5200033  60.2400017  64.8400021  43.2300043
  57.5300026  65.6700039  38.8400030  56.5500021  65.0000048  38.6100030
  57.5700045  67.0100021  38.7000012  58.4400034  67.5200033  38.8500023
  56.4300013  67.6500034  37.9900026  55.4900026  67.3600054  38.4700012
  56.5100050  69.2000055  38.0200028  57.3100042  69.5700026  37.3800015
  55.2700043  69.9100018  37.5800014  54.4400024  69.6500015  38.2500029
  55.4600048  70.9600019  37.7600026  55.0200033  69.7500038  36.5300012
  56.6900015  69.6900034  39.3600011  57.5700045  69.3800020  39.5800018
  56.1100006  67.0700026  36.5600014  54.9100018  67.0700026  36.2200022
  56.9900036  66.5400028  35.7900023  57.9200029  66.4900017  36.2000012
  56.8000031  65.8100033  34.5100021  56.0500050  66.3100052  33.9100027
  57.9900026  65.9400034  33.6600018  57.8600025  65.3500032  32.7500010
  58.8700008  65.5400038  34.1700006  58.4100008  67.3300028  33.2300019
  58.2700014  68.0800009  34.0100026  57.7500010  67.5400019  32.3800015
  59.8800039  67.3000050  32.7100015  59.9900007  66.5200043  31.9500017
  60.5900049  67.0300055  33.5000014  60.4000044  68.6100054  32.1400023
  60.5600023  69.3300056  32.9300022  59.6000051  68.9400053  31.4700007
  61.6200018  68.3000040  31.4200020  61.5500021  67.6700020  30.6300020
  61.9900036  69.1900015  31.1100006  62.3400021  67.9800034  32.0600009
  56.2400007  64.3400049  34.6400023  55.7200003  63.7900019  33.6700010
  56.3100004  63.7600040  35.8000016  56.8500042  64.2800045  36.4800024
  55.7000017  62.4600029  36.2100029  55.8300018  61.8500042  35.3100014
  56.3500023  61.7300034  37.2900009  55.9700012  60.7300043  37.4800014
  56.2800026  62.2500038  38.2500029  57.8800011  61.5800047  36.9400024
  58.4500027  62.2900009  37.5300026  57.9800034  61.7500019  35.8700013
  58.3500051  60.1700020  37.2200012  57.8700018  59.6400023  36.4000010
  58.0800009  59.8900032  38.2300019  59.8900032  60.2300024  37.0300007
  60.3100014  60.9000015  37.7800012  60.1800013  60.6800032  36.0800028
  60.4200029  58.8700008  37.0700026  59.9700022  58.1300020  36.5500021
  61.3400030  58.7800026  36.6600013  60.5100012  58.5100031  38.0200028
  54.2600012  62.5800037  36.6400027  53.4900045  61.6900015  36.2500024
  53.8900042  63.5600042  37.4400020  54.6000004  64.0600014  37.9600024
  52.5600004  63.7200022  38.0200028  51.9600010  63.0400038  37.4100018
  52.6300049  63.1500053  39.4000030  51.6900015  63.4000015  39.8800015
  52.6100016  61.5900040  39.5000029  53.5500002  61.1700010  39.8400021
  51.8500042  61.3400030  40.2400017  52.2300005  61.0900021  38.6100030
  53.8400030  63.5800028  40.2500010  54.7400045  63.0600023  39.9300027
  54.0500021  64.6300030  40.0600004  53.6600018  63.4300041  41.3199997
  52.1300030  65.1800013  37.9100013  51.9200039  65.8200026  38.9800024
  51.9200039  65.7700014  36.7500019  52.3500013  65.2500010  35.4600024
  52.1500015  64.2000008  35.3100014  53.4200048  65.4300022  35.4200006
  51.6100025  66.0900021  34.4800019  50.6500006  65.6300020  34.2400026
  52.1700048  66.3300037  33.5700011  51.3600016  67.4000025  35.1600027
  50.4800034  67.8800011  34.7400022  52.2100019  68.0600023  34.9700022
  51.3100004  67.0800018  36.6600013  52.0200014  67.8300047  37.0300007
  49.9000025  67.2700024  37.2300029  49.4100046  68.3500051  37.2200012
  49.2200041  66.2300014  37.7200007  49.6400023  65.3200054  37.7900028
  47.8299999  66.3400030  38.0900025  47.3699999  67.2500038  37.7300024
  47.1100044  65.0500011  37.5600028  46.0300016  65.1500034  37.7200007
  47.4900007  64.1700029  38.1000018  47.3400021  64.8500013  36.0200024
  47.3100042  65.7900047  35.4700017  46.4600039  64.3400049  35.6400013
  48.6300039  64.0900040  35.6700015  49.4500017  63.7700033  36.4900017
  48.8800001  63.8400030  34.4100022  48.1900024  64.1300011  33.7300014
  49.7000027  63.3700037  34.0900016  47.7300024  66.4800024  39.6000028
  46.6100025  66.5000010  40.1300001  48.8500023  66.5000010  40.3200006
  49.7200012  66.3300037  39.8300028  48.8700008  66.6200018  41.7500019
  47.9900026  66.1000013  42.1400023  50.0900030  65.8700037  42.4000025
  51.0200024  65.9100008  41.8300009  50.2800035  66.3300037  43.8800001
  49.3400002  66.3200045  44.4300032  50.9900045  65.6300020  44.3300009
  50.7500029  67.3100042  43.9100027  49.8300028  64.3600035  42.3699999
  49.5200014  64.0900040  41.3600016  50.7900047  63.8500023  42.5100040
  49.1100025  63.9300013  43.0600023  48.8900042  68.1100035  42.1099997
  49.4600010  69.0100050  41.4700031  48.0700016  68.5400009  43.1300020
  47.6800013  67.8400040  43.7300014  47.9300022  69.9000025  43.5400009
  47.3699999  70.4100037  42.7600002  46.9800043  69.9100018  44.6900034
  47.5500011  69.6100044  45.5700016  46.1100006  69.2700052  44.6200037
  46.5700006  71.2000036  44.9100018  45.7900000  71.1400032  44.3500042
  49.3000031  70.5000019  43.8500023  50.1300001  69.9300051  44.5600033
  49.5100021  71.7500019  43.4300041  48.7300014  72.2700024  43.0700016
  50.8400011  72.3700047  43.2800007  51.4700031  71.5900040  42.8400040
  50.7200003  73.6800051  42.4300003  49.8700047  74.2100048  42.8400040
  51.8800020  74.6400023  42.5200033  52.7600002  74.0200043  42.3699999
  51.8300009  75.4500055  41.7900038  51.7900038  75.0100040  43.5300016
  50.4900026  73.3100033  41.0700035  50.5100012  74.0800047  40.5000019
  51.6500044  72.5600052  44.5400000  52.8400040  72.2100019  44.4600010
  50.9900045  72.7800035  45.7000017  49.7200012  73.5200024  45.7400036
  48.9200020  72.7800035  45.8400011  49.6500015  74.2000055  44.8900032
  49.8300028  74.4400024  46.9500017  48.8800001  74.7900057  47.3600006
  50.4800034  75.2500057  46.6100025  50.7100010  73.6300039  47.9800034
  50.0800037  73.1300020  48.7200022  51.3900042  74.2500019  48.5500002
  51.6000032  72.7400017  47.0600033  52.6200008  73.1200027  46.9400024
  51.7700005  71.3300037  47.5700045  52.8500032  71.0400057  48.1200027
  50.9000015  70.4000044  47.1700001  50.0300026  70.7500029  46.7900038
  51.1300039  68.9500046  47.3900032  51.4300013  68.8700056  48.4300041
  49.8800039  68.1200027  47.1200037  49.8100042  67.7800035  46.0900021
  49.7700024  67.0000029  48.1200027  50.5500031  66.2900019  47.8500032
  49.9900007  67.1500015  49.1700029  48.8700008  66.4200020  47.9400015
  48.7600040  68.8600016  47.5400019  49.0500021  69.6400023  48.0100012
  52.3400021  68.3200026  46.6200018  53.1400013  67.5700045  47.1600008
  52.5700045  68.7500048  45.3700018  51.8500042  69.3300056  44.9600029
  53.6700010  68.2800055  44.4700003  53.6600018  67.2000027  44.5500040
  53.3300018  68.9000034  43.1000042  53.7600040  69.9000025  42.9900026
  52.2500038  69.0900040  43.0600023  53.5700035  67.9200029  41.8900013
  52.8400040  67.1100044  42.0200014  53.1700039  68.6100054  40.6400013
  52.8700018  67.7300024  40.0800037  52.3900032  69.3700027  40.7900000
  53.9900017  69.1400051  40.1600027  55.0400019  67.4200010  41.6300011
  55.4500008  66.7900038  42.4200010  55.0100040  66.8300009  40.7200003
  55.6800032  68.2800055  41.4600039  55.0700045  68.7600040  44.9000025
  56.0300016  68.0100012  44.8600006  55.2000046  70.0100040  45.4600000
  54.3600035  70.5800056  45.3900003  56.3800049  70.4300022  46.2600040
  57.2900009  70.1800013  45.7200003  56.5000010  71.9000053  46.5400028
  55.7300043  72.1600056  47.2700024  57.8800011  72.2800016  47.1100044
  58.0600023  71.7800045  48.0700016  58.6600018  72.0700026  46.3700008
  57.8300047  73.3300018  47.4400043  56.2500048  72.7300024  45.2400017
  55.2200031  72.7100039  44.8900032  56.5800047  73.7500048  45.3800011
  56.8600035  72.2800016  44.4600010  56.5000010  69.4400024  47.4500036
  57.6400042  68.9600039  47.6000023  55.5000019  69.2900038  48.3600044
  54.6500015  69.7800016  48.1200027  55.5400038  68.3700037  49.5400047
  56.3800049  68.7600040  50.1200008  54.2800045  68.5400009  50.4600000
  53.3900023  68.3500051  49.8500013  54.2300034  69.5700026  50.8100033
  54.2100048  67.4300051  51.5000010  54.2400026  66.4600039  51.0000038
  53.2600021  67.5500011  52.0300007  55.2700043  67.5000048  52.5800037
  55.3600025  66.5000010  53.3400011  55.9700012  68.5400009  52.7100039
  56.0000038  66.9500017  49.1200018  56.9300032  66.3900042  49.6400023
  55.4600048  66.3800049  48.0700016  54.6900034  66.8400049  47.6100016
  55.8800030  65.0800037  47.5000000  55.8000040  64.3000031  48.2600021
  54.9300003  64.5800018  46.3800001  54.7900009  65.1900053  45.4800034
  55.4800034  63.1400013  45.9600019  55.8800030  62.6000023  46.8200016
  54.7600031  62.4900007  45.4700041  56.3100004  63.1600046  45.2500010
  53.5500002  64.2800045  46.9200039  53.5800028  63.5000038  47.6800013
  53.1200027  65.2000046  47.3000002  52.9700041  63.9100027  46.0700035
  57.3600006  65.1100016  46.9400024  58.1400013  64.2400026  47.2900009
  57.7600050  66.1400032  46.2700033  57.1300030  66.9200039  46.1500025
  59.1200018  66.2400055  45.6500006  59.3800020  65.3300047  45.1000023
  59.1200018  67.3800039  44.6600008  60.1000023  67.6300049  44.2500019
  58.7100029  68.2700014  45.1300001  58.3500051  66.9500017  43.5400009
  57.4300051  67.1400023  43.7100029  60.2300024  66.4600039  46.6800022
  61.3300037  65.8500051  46.6100025  59.9200010  67.2100019  47.7600002
  59.0700006  67.7500010  47.7200031  60.7000017  67.2900009  48.9700031
  61.6900015  67.7100039  48.8200045  59.9800014  68.3200026  49.9000025
  60.5100012  68.2900047  50.8400011  58.9200020  68.1700039  50.1000023
  60.2000046  69.6900034  49.3400002  60.0300026  69.8400021  48.2700014
  61.2600040  69.8800039  49.5500040  59.5700026  70.8500051  50.2400017
  59.6800041  70.6100035  51.2900019  58.4900045  70.8500051  50.1200008
  60.1600027  72.1900034  49.9900007  60.1600027  72.6200056  49.0800047
  60.8000040  72.9800034  50.8200026  60.8200026  72.7900028  52.1100044
  60.4500008  71.9500017  52.5100040  61.5000010  73.2900047  52.6700020
  61.4800024  73.9900017  50.3500032  61.3600016  74.2200041  49.3700027
  62.0800018  74.5200014  50.9500027  60.8400011  65.9500027  49.6000004
  62.0300007  65.5900049  49.7700024  59.7900009  65.1700020  49.8800039
  58.9000034  65.5800009  49.6300030  59.8500013  63.8800049  50.6100035
  60.4100037  63.9500046  51.5400028  58.4200048  63.4600019  50.9400034
  58.4100008  62.4300051  51.2800026  57.7500010  63.4700012  50.0800037
  57.8000021  64.3600035  51.9500017  58.3600044  65.2000046  52.6300049
  56.5100050  64.1100025  52.0900011  55.9700012  63.6500025  51.3600016
  56.0600042  64.7800016  52.7100039  60.5200052  62.7500010  49.7200012
  61.4000034  62.0800018  50.2300024  60.2600050  62.7400017  48.4000015
  59.5400047  63.3200026  47.9900026  61.0600042  61.9700050  47.4300003
  60.9200048  60.9100008  47.6300001  60.5800009  62.2100019  45.9700012
  61.3500023  61.8600035  45.2800035  60.5200052  63.2700014  45.7700014
  59.2100048  61.6200018  45.5200005  58.5600042  61.9800043  46.3100004
  58.7400007  62.1000051  44.1400003  58.5700035  63.1700039  44.1400003
  59.4500017  61.8300009  43.3600044  57.7000046  61.8000031  43.9800024
  59.1800022  60.1200008  45.3800011  59.9100018  59.6800041  44.6900034
  59.3700027  59.7000027  46.3600016  58.2100010  59.7400045  45.0300026
  62.5800037  62.2600031  47.5100040  63.3900023  61.3600016  47.4700022
  63.0500031  63.5000038  47.5600004  62.3500013  64.2200041  47.4600029
  64.4700050  63.8500023  47.5800037  64.4900036  64.8900032  47.2400045
  65.0400019  63.2700014  46.8500042  65.0900030  63.6600018  48.9800024
  66.2700033  63.4600019  49.1300011  64.2300034  63.6700010  50.0000000
  63.2600021  63.9700031  49.9100018  64.6600008  63.3900023  51.3700008
  65.6600046  63.7900019  51.4900017  63.5600042  63.9300013  52.3500013
  62.6000023  63.5400009  52.0300007  63.4500027  65.0100040  52.2400045
  63.6300039  63.6200047  53.8400030  63.5900021  62.5500011  54.0000010
  62.8000021  64.0500021  54.4000006  64.9200010  64.0100050  54.5300007
  65.0000048  65.0600052  54.2300034  65.7600021  63.4200048  54.1800022
  64.9900007  63.8700008  55.9900045  64.9600029  62.7800035  56.1100006
  64.1400051  64.4300032  56.3700008  66.2400055  64.4000053  56.5800047
  66.1500025  65.4100037  56.4800024  66.4300013  64.2300034  57.5600004
  67.0200014  64.1200018  56.0100031  65.0900030  61.9100046  51.5700006
  65.5300045  61.5800047  52.7000046  65.0800037  61.0600042  50.5200005
  64.4700050  61.2500048  49.7300005  65.9100008  59.9200010  50.4900026
  65.5700016  59.2700005  51.3000011  65.7500029  59.2600012  49.1500044
  64.6700048  59.2100048  49.0000010  66.3400030  60.0300026  47.9800034
  67.4200010  59.8700047  47.8700018  65.8900023  59.6800041  47.0500040
  66.1700010  61.1000013  47.9800034  66.3600016  57.8500032  49.0100002
  67.3700047  57.8500032  49.4000006  65.8700037  57.0500040  49.5800018
  66.2200022  57.4700022  48.0000019  67.3900032  60.3000021  50.8100033
  68.0700016  59.5700026  51.5100002  67.9300022  61.4200020  50.3100014
  67.2900009  61.9800043  49.7700024  69.3400049  61.8000031  50.4200029
  69.4000053  62.8700018  50.2000046  69.7600031  61.1800051  49.6300030
  69.9200010  61.6300011  51.8200016  70.7100010  60.7400036  52.1200037
  69.5100021  62.5600052  52.6700020  68.8100052  63.2000017  52.3100042
  70.0200033  62.6800013  53.9900017  71.1100054  62.6400042  53.9700031
  69.6600056  64.0300035  54.5700026  70.0700045  64.8100042  53.9300013
  70.0200033  64.1000032  55.6000042  68.2600021  64.1900015  54.5400047
  68.0700016  65.1200008  54.4400024  69.5700026  61.4600039  54.8700047
  70.2100039  61.0900021  55.7900047  68.4800053  60.7400036  54.4200039
  68.0400038  61.0700035  53.5800028  68.0900049  59.4300032  55.0600004
  68.0300045  59.6400023  56.1300039  66.6700029  59.0200043  54.6300030
  66.7700052  58.8500023  53.5600042  65.9800053  59.8700047  54.6800041
  66.0400009  57.7700043  55.2900028  66.8700027  57.3300028  55.8300018
  65.6600046  57.1300030  54.4900036  64.8400021  58.1500006  56.2100029
  64.3800020  57.2100019  56.4600039  64.1100025  58.7400007  55.6500006
  65.4000044  58.8400030  57.5000048  65.8800030  59.7600031  57.1600008
  66.0700035  58.1400013  57.9800034  64.2200041  59.3000031  58.2700014
  64.5700026  59.6300030  59.1500044  63.8100052  60.1000023  57.8000021
  63.5400009  58.5600042  58.4000015  69.1400051  58.3400011  54.8200035
  69.4600010  57.5500011  55.7100010  69.5200014  58.1600046  53.5600042
  69.1600037  58.8800049  52.9600048  70.1800013  56.9100046  53.0700016
  70.3700018  56.2300014  53.9100027  69.2100048  56.1700010  52.1100044
  69.7300053  55.3400040  51.6400003  68.9200020  56.8500042  51.3100004
  67.6600027  55.6800032  52.8300047  71.5100050  57.0200014  52.3700047
  72.3400021  56.1200047  52.4000025  71.9200039  58.1400013  51.7200041
  71.3400030  58.9600039  51.8800020  73.1600046  58.3300018  51.0200024
  73.4500027  57.4700022  50.4000044  73.0400038  59.5200014  50.0900030
  74.0700054  59.6900034  49.7700024  72.8700018  60.3800011  50.7400036
  71.7300034  59.5000029  48.8000011  74.3700027  58.4100008  52.0400047
  75.5400038  58.1600046  51.6800022  74.0900040  58.7300014  53.3000040
  73.1200027  59.0000010  53.4500027  75.0300026  58.7500048  54.4300032
  76.0200024  59.1000032  54.1200018  74.6400023  59.7700024  55.5400038
  74.6000051  60.7400036  55.0300026  75.4700041  59.9300051  56.2200022
  73.3000040  59.4300032  56.1900043  73.1700039  58.3600044  56.3500023
  72.5800037  59.7700024  55.4400015  73.0000019  60.1100016  57.5400019
  73.0300045  61.2000036  57.5300026  73.8200045  59.8600006  58.2100010
  71.6200018  59.8500013  58.2300043  71.3600016  58.8100004  58.3500051
  70.9400034  60.3700018  57.5500011  71.5100050  60.4900026  59.5500040
  72.1100044  59.9300051  60.1500034  71.8500042  61.4400005  59.5700026
  70.5500031  60.3300047  59.8300028  75.2800035  57.3600006  54.9600029
  75.8000040  57.2400045  56.0600042  74.8900032  56.2600040  54.2900038
  74.5000029  56.4000034  53.3600044  75.1400042  54.8400021  54.6400023
  75.4400015  54.8800039  55.6900024  73.9200020  53.9200020  54.3700027
  74.3500042  52.9100037  54.3700027  73.5500050  54.1100025  53.3600044
  72.7200031  54.1000032  55.2400017  72.3100042  55.1600027  56.1400032
  71.1300039  54.8600006  56.6400003  70.4900026  55.4900026  57.2400045
  70.7800055  53.6800003  56.1500025  69.9700022  53.1800032  56.4900017
  71.7600012  53.1500006  55.3600025  71.6400051  52.2600031  54.7500038
  76.3600016  54.2600012  53.8900042  76.6600037  54.7700024  52.7600002
  77.0000029  53.1700039  54.3900013  76.8800020  52.7500010  55.7800007
  75.9400034  52.2300005  56.0100031  77.1300030  53.5300016  56.4900017
  77.9500055  51.6400003  55.9500027  77.5900030  50.9200001  56.6700029
  78.8500023  52.0500040  56.3900042  78.1900024  51.0500002  54.6200037
  77.5000048  50.2700043  54.3100023  79.2400026  50.7400036  54.5600033
  77.9200029  52.2500038  53.6600018  78.9400053  52.6500034  53.5900021
  77.3200035  51.8200016  52.3200035  76.0800028  51.6200018  52.2400045
  78.0600023  51.7100048  51.2600040  79.0200043  51.9500017  51.4800024
  77.5900030  51.5000010  49.8800039  76.9900036  52.3500013  49.5700026
  78.9500046  51.4400005  49.1200018  79.4300032  50.4800034  49.2700005
  79.6800041  52.2000027  49.4000006  78.8300037  51.5900040  47.5900030
  78.2300043  50.8200026  47.1100044  79.8700047  51.5000010  47.2700024
  78.4300041  53.0000019  47.1100044  79.3000031  53.6700010  46.5300035
  77.2800016  53.4900045  47.2800016  76.7500019  50.1900005  49.6300030
  75.9000015  50.1500034  48.6900043  76.7200041  49.2400026  50.5700016
  77.5600052  49.3700027  51.1000013  76.0000038  47.9600000  50.6200027
  75.6700039  47.7300024  49.6100044  77.1200037  46.9600010  51.0700035
  77.6500034  47.3900032  51.9300032  76.6200018  46.0700035  51.4400005
  77.8000021  46.7500019  50.2600002  74.7500038  48.0800009  51.5200043
  74.1000032  47.0600033  51.6900015  74.3900013  49.3300009  51.9700003
  75.1000023  50.0200033  51.7900038  73.2600021  49.7600031  52.8000021
  72.5600052  48.9300013  52.8900003  73.8000011  50.0700045  54.2000008
  73.0400038  50.6800032  54.7000027  74.7300053  50.6400013  54.2200041
  74.1300058  48.7900019  55.0400019  74.8700047  48.2100010  54.5000029
  73.3100033  48.0600023  55.0300026  74.4600058  49.1000032  56.5500021
  73.8400030  49.8300028  57.0800018  75.4200029  49.6100044  56.5000010
  74.6600056  47.8500032  57.3500013  75.4600048  47.9700041  58.0700016
  74.9600029  47.0600033  56.6700029  73.3500051  47.5600004  58.0200005
  72.8900051  48.4200001  58.3000040  72.7300024  47.0800018  57.3800039
  73.4100056  46.9400024  58.8100004  72.4500036  50.8900023  52.2700024
  71.2700033  51.0600042  52.6300049  72.9400015  51.7000008  51.2900019
  73.8800049  51.5100002  50.9800005  72.2500038  52.9000044  50.7900047
  72.0100021  53.4900045  51.6700029  73.1200027  53.7800026  49.9000025
  72.4800014  54.6400023  49.6900034  73.3700037  53.1000042  49.0900040
  74.3800020  54.2900038  50.5000019  74.9800014  53.4100008  50.7300043
  74.1900015  54.9300003  51.3700008  75.0500059  55.1600027  49.4400024
  74.2700052  55.8100033  49.0600014  75.3800058  54.4700003  48.6600018
  76.0000038  56.0300016  50.0800037  75.6300020  56.6300011  50.7900047
  77.2400045  56.3200045  49.6900034  77.7000046  55.7900047  48.5800028
  77.2500038  55.0700045  48.0500031  78.7000036  55.7400036  48.5200024
  78.0200052  56.9700050  50.5100012  77.7800035  57.4200010  51.3700008
  78.9500046  57.1100044  50.1600027  70.9100056  52.5200033  50.0900030
  69.9100018  53.1800032  50.2100039  70.9600019  51.4200020  49.3600035
  71.8200016  50.9000015  49.3100023  69.8300028  50.9600019  48.5600042
  69.3300056  51.8200016  48.1500006  70.3300047  50.1100016  47.3500013
  70.8500051  49.2300034  47.7200031  71.0900021  50.7400036  46.8700027
  69.3400049  49.6700001  46.3000011  69.8000050  49.6100044  45.3100014
  68.5800028  50.4600000  46.2600040  68.4100056  48.1700039  46.6300011
  69.4500017  46.9800043  45.8700037  69.4700050  47.2200012  44.8100042
  70.4300022  47.1300030  46.2900019  69.0700054  45.9800005  46.0500002
  68.7400055  50.1800013  49.3200016  67.5400019  50.6100035  49.2200041
  69.1200018  49.2700005  50.3000021  70.3600025  48.4200001  50.3000021
  71.2400055  49.0500021  50.5000019  70.5300045  47.9600000  49.3300009
  70.2200031  47.4100018  51.4200020  71.1700010  47.3600006  51.9400024
  69.8100042  46.4800024  51.0200024  69.2000055  48.1200027  52.3400021
  69.6100044  48.9300013  52.9300022  68.7200022  47.4100018  53.0100012
  68.2100010  48.7000036  51.3300037  67.5800037  47.9400015  50.8800030
  67.3900032  49.7700024  52.0400047  66.2000036  49.5700026  52.1700048
  68.0500031  50.8800030  52.4100018  69.0500021  50.7800007  52.4100018
  67.3800039  52.0800018  52.9800034  66.7400026  51.7800045  53.8100004
  68.4900045  52.9000044  53.5300016  69.2300034  53.1600046  52.7800035
  69.1000032  52.3200035  54.2400026  68.1300020  54.4700003  54.3600035
  66.4200020  52.8200006  51.9700003  65.3400040  53.2900047  52.2800016
  67.0700026  53.1100035  50.7700014  68.0200052  52.7900028  50.6600046
  66.4100027  53.9400005  49.7900009  66.1100054  54.8900032  50.2400017
  67.4400043  54.2800045  48.7200022  67.8000021  53.3800030  48.2200003
  66.9800043  54.9400043  47.9900026  68.2500029  54.8500013  49.1800022
  65.2100039  53.2800007  49.1200018  64.1500044  53.9000034  49.0900040
  65.2800035  52.0100021  48.7200022  66.2300014  51.6400003  48.7200022
  64.0800047  51.3000011  48.2500029  63.5700035  51.9400024  47.5300026
  64.4500017  49.9800014  47.6400042  63.5300016  49.4000006  47.5300026
  65.2200031  49.5400047  48.2600021  64.8800039  50.1100016  46.1900043
  65.2700043  49.1200018  45.9600019  65.6000042  50.9400034  46.1500025
  63.6700010  50.3500032  45.1900005  63.9300013  50.3100014  43.9900017
  62.4900007  50.4600000  45.6000042  63.1000042  51.3100004  49.3700027
  61.9500017  51.7300034  49.2200041  63.5100031  50.9200001  50.6100035
  64.5000029  50.7200003  50.6800032  62.5900030  50.8700037  51.7100048
  61.8000031  50.1600027  51.4900017  63.3400011  50.4600000  53.0100012
  64.0300035  51.2800026  53.2300043  63.8800049  49.5400047  52.7900028
  62.3100042  50.3000021  54.2000008  62.3600006  51.0900021  55.1800013
  61.4700031  49.3400002  54.2000008  61.8300009  52.2200012  51.9200039
  60.6500006  52.2100019  52.1900034  62.5800037  53.3200026  51.6600037
  63.5600042  53.1500006  51.5600014  62.1500015  54.7200012  51.8300009
  61.4900017  54.7400045  52.6900005  63.3300018  55.6100035  52.1500015
  64.0400028  55.5800009  51.3200045  63.8400030  55.2400017  53.0400038
  62.9000044  57.0100021  52.3100042  62.5000048  57.3900032  53.6400032
  62.6100016  56.7100048  54.4600010  62.0200014  58.7400007  53.8400030
  61.7300034  58.9500046  54.8700047  61.9700050  59.6100044  52.7800035
  61.6100025  60.9400034  53.0000019  61.7000008  61.4400005  52.1800041
  62.3600006  59.1700029  51.5100002  62.4200010  59.8800039  50.7000017
  62.8600025  57.9000044  51.2400007  63.3100033  57.5600004  50.3200006
  61.3200045  55.2700043  50.7200003  60.3000021  55.8300018  50.9600019
  61.6700029  55.0700045  49.4900036  62.5600052  54.6200037  49.3500042
  60.9200048  55.4400015  48.2600021  60.7600021  56.5100050  48.3100033
  61.8200016  55.1600027  46.9800043  61.2600040  55.3900003  46.0800028
  62.1800041  54.1300011  46.9500017  63.0700016  56.0500050  46.9300032
  63.5200024  56.0200024  47.9200029  64.0500021  55.4200029  45.8900023
  63.7100029  55.5000019  44.8500013  65.0400019  55.8500004  45.9800005
  64.2200041  54.4000006  46.2000036  62.7100039  57.4600029  46.5600014
  63.5500050  58.1400013  46.4200020  62.1500015  57.3900032  45.6200027
  61.9900036  57.9500008  47.2200012  59.6200037  54.7200012  48.2200003
  58.6600018  55.2900028  47.7000046  59.5600033  53.4900045  48.8700008
  60.4600048  53.0300045  48.9400005  58.2100010  52.8300047  48.9400005
  57.8500032  52.7500010  47.9100037  58.2800007  51.3600016  49.6000004
  57.2900009  50.9300041  49.4700003  58.4300041  51.4800024  50.6800032
  59.3200016  50.5500031  49.1500044  60.1400042  51.0300016  49.2700005
  57.3400021  53.5800028  49.8200035  56.1900043  53.6500025  49.4700003
  57.8000021  54.1600037  50.9500027  58.7600040  54.1100025  51.2400007
  56.8900013  54.8900032  51.9000006  55.9500027  54.3300009  52.0200014
  57.3500013  55.0000048  53.4300041  56.4600039  55.3100014  53.9900017
  57.6700020  53.6000013  53.9600039  58.6000013  53.3800030  53.4400034
  57.9700041  53.7600040  55.0000048  56.7800045  53.0000019  53.7800026
  58.4400034  55.9900045  53.7700033  58.4100008  56.9100046  53.2000017
  58.4700012  56.2700033  54.8300028  59.4500017  55.6200027  53.5600042
  56.4400005  56.1900043  51.3800001  55.3300047  56.6900015  51.5800047
  57.3000050  56.8200016  50.6100035  58.1800032  56.3300037  50.5200005
  56.9700050  57.9500008  49.8100042  56.4600039  58.5600042  50.5500031
  58.2000017  58.8300037  49.3800020  58.8900042  58.3300018  48.6900043
  57.5500011  60.1000023  48.7500000  58.3600044  60.8000040  48.5700035
  57.1300030  59.9700022  47.7600002  56.7100048  60.5200052  49.3100023
  58.9000034  59.3500042  50.6300020  59.2600012  58.4800005  51.1800003
  59.7300005  60.0100040  50.3700018  58.1700039  59.8500013  51.2700033
  56.0100031  57.7400017  48.6100006  55.0000048  58.4900045  48.5400009
  56.1000013  56.6100025  47.9000044  56.9300032  56.0600042  47.9800034
  55.0900030  56.3400030  46.8800020  54.7700024  57.2700024  46.4100027
  55.6500006  55.3700018  45.7600021  54.7500038  55.2500010  45.1400042
  56.1100006  54.4300032  46.0500002  56.7000008  56.0900021  44.8400021
  57.5100040  56.4800024  45.4700041  57.2600031  55.0900030  43.8400030
  56.3600016  54.6600008  43.3800030  57.8700018  55.5600023  43.0700016
  57.8800011  54.3700027  44.3600035  56.2300014  57.3600006  44.1900015
  56.0900021  58.0900049  44.9800014  57.0400047  57.6900005  43.5400009
  55.2700043  57.1400023  43.7100029  53.7700033  55.8000040  47.5400019
  52.6900005  56.0900021  47.0400000  53.8600016  55.3000021  48.7700033
  54.8000050  55.1400042  49.1300011  52.6900005  55.0500011  49.6200037
  52.0800018  54.3500042  49.0600014  53.0100012  54.5100021  50.9800005
  53.3300018  55.2600050  51.7100048  53.8600016  53.8300037  50.8500004
  51.8700027  53.5800028  51.4900017  51.8600035  52.4200010  51.2200022
  50.7700014  54.1600037  51.9400024  50.8200026  55.1200008  52.2700024
  49.9300003  53.6400032  52.0900011  51.7600012  56.2800026  49.7800016
  50.5900002  56.1700010  49.4700003  52.3300028  57.4300051  50.2200031
  53.3300018  57.3700047  50.3700018  51.5900040  58.6900043  50.3400040
  50.8100033  58.4900045  51.0700035  52.4900007  59.8400021  50.8400011
  51.9200039  60.7600021  50.7700014  53.3000040  60.0300026  50.1300001
  53.1000042  59.6900034  52.2000027  53.7900019  58.8500023  52.2800016
  52.3400021  59.5100021  52.9700041  53.9300013  60.9200048  52.6300049
  55.1100016  60.8900023  52.4700022  53.3000040  61.9100046  53.1800032
  52.2900009  61.9400024  53.0800009  53.7700033  62.7700043  53.4200048
  50.9300041  59.1500044  49.0400028  49.7300005  59.5200014  49.0600014
  51.6800022  59.1100025  47.9100037  52.6400042  58.8000011  47.9900026
  51.0000038  59.2900038  46.6000032  50.5600023  60.2800035  46.5799999
  52.0800018  59.2100048  45.4700041  52.6600027  58.3000040  45.6700039
  52.7600002  60.0500011  45.5400038  51.4800024  59.2800045  44.0100002
  50.6000042  58.6600018  43.9400005  51.0700035  60.7800007  43.5800028
  50.6800032  60.9100008  42.5699997  50.3500032  61.1900043  44.2799997
  51.9300032  61.4500046  43.5700035  52.4400043  58.7900019  42.9700041
  53.3700037  59.3600035  42.8600025  52.7800035  57.8300047  43.3500004
  51.8500042  58.7200022  42.0600033  49.8100042  58.4000015  46.3400030
  48.8000011  58.8100004  45.7900000  49.9100018  57.1600008  46.7600012
  50.8000040  56.9300032  47.1800041  48.8300037  56.1800003  46.6100025
  48.4300041  56.2400007  45.6000042  49.3000031  54.7400045  46.7700005
  48.5100031  54.0000010  46.8500042  49.8300028  54.6500015  47.7100039
  50.3900003  54.1600037  45.4100037  47.5600004  56.4800024  47.4900007
  46.4200020  56.2900019  47.0700026  47.7300024  56.9200039  48.7300014
  48.6700010  56.9400024  49.1200018  46.5000010  57.1500015  49.6900034
  45.7500029  56.4200020  49.3900013  46.8100023  56.9500017  51.1900043
  45.9300041  57.1800041  51.8000031  47.2600031  55.4600048  51.3000011
  48.2200003  55.3300047  50.8100033  47.3800039  55.2200031  52.3500013
  46.5799999  54.7100019  50.9100008  47.8600025  57.9200029  51.6400003
  48.0600023  57.9400015  52.7000046  48.7200022  57.9000044  50.9700012
  47.4200010  58.9100027  51.5500021  45.8800030  58.5200024  49.3400002
  44.7300005  58.7000036  49.6900034  46.6600037  59.4500017  48.7200022
  47.6600027  59.3200016  48.7200022  46.1900043  60.7400036  48.0400038
  45.5900002  61.3200045  48.7300014  47.4000025  61.6200018  47.7300024
  48.0600023  61.1200047  47.0100021  48.0400038  61.7700052  48.6000013
  47.0900011  63.0500031  47.2600031  46.3300037  62.9900026  46.4900017
  46.4900017  63.9700031  48.3200026  47.0500040  63.9400053  49.2600012
  46.5600014  65.0000048  47.9800034  45.4200029  63.8200045  48.3700037
  48.3800030  63.6700010  46.8800020  49.2200041  63.5000038  47.5600004
  48.7000036  63.1500053  45.9800005  48.1800032  64.7000027  46.5799999
  45.3500032  60.4400015  46.8200016  44.2600012  60.9100008  46.5200043
  45.8300018  59.5800018  45.9700012  46.7900038  59.2900038  46.0700035
  45.1400042  59.0000010  44.7600031  44.9400043  59.7600031  44.0200043
  46.0700035  58.0100012  44.0500021  46.4500046  57.2700024  44.7500038
  46.9400024  58.6100006  43.7800026  45.5900002  57.3600006  42.7700043
  45.4500008  57.9600048  41.5600014  45.1600027  57.0200014  40.6500006
  45.0900030  57.1300030  39.5800018  45.0300026  55.8500004  41.2500000
  44.7600031  55.0500011  40.7000017  45.2100039  56.0600042  42.5699997
  45.2900028  55.2400017  43.2800007  43.8000011  58.3300018  45.1900005
  42.7900028  58.4100008  44.6000004  43.8300037  57.7100039  46.3700008
  44.7700024  57.7100039  46.7600012  42.6700020  56.9300032  47.0000029
  42.1900034  56.3700008  46.2000036  43.1400013  55.8700037  48.0100012
  42.9400015  56.3600016  48.9700031  44.1900015  55.6400013  47.9100037
  42.2200012  54.6300030  47.9200029  41.1800003  54.9000025  48.0300045
  42.3699999  54.1400003  48.8800001  42.6500034  53.6900043  46.7800045
  43.5700035  52.8700018  47.0000029  42.1200037  53.8700008  45.6300020
  41.5799999  57.9000044  47.6800013  40.4700041  57.4700022  48.0400038
  41.9200039  59.1500044  47.9400015  42.8700018  59.4800043  47.8100014
  40.9800005  60.2500010  48.1700039  40.0200033  59.9100018  48.5500002
  41.5400028  61.2000036  49.2400026  42.3400021  61.8500042  48.8800001
  41.7700005  60.6900024  50.1600027  40.4900026  62.1500015  49.7900009
  39.6800017  61.5000010  50.1300001  40.1300001  62.8600025  49.0500021
  41.0800028  62.9000044  51.0400009  42.0200014  63.4400034  50.9100008
  41.2000036  62.2100019  51.8800020  40.0000000  63.8800049  51.5700006
  39.0300012  63.3700037  51.5600014  39.9900007  64.7200012  50.8800030
  40.2500010  64.3900013  52.9100037  41.1600018  64.8000050  52.9300022
  39.5700026  65.0700045  53.2100010  40.1300001  63.6600018  53.6000013
  40.4100037  60.9400034  46.8900013  39.3300009  61.5200043  47.0400000
  41.1000013  61.0400009  45.7700014  42.0400000  60.6900024  45.6900024
  40.4900026  61.4000034  44.4900036  39.5800018  60.8100033  44.5300007
  40.2300024  62.9300022  44.3600035  41.1700010  63.4300041  44.5800018
  39.7400022  63.3300018  43.0100012  38.9300013  62.7600050  42.5699997
  39.4500017  64.3900013  43.0600023  40.5000019  63.2900047  42.2300005
  39.2600012  63.4200048  45.2500010  39.1100025  62.7400017  45.9300041
  41.5000010  61.1200047  43.3700037  42.6600027  61.5900040  43.5200024
  41.2400007  60.3600025  42.2900009  40.0699997  59.6400023  42.0100021
  39.2000008  60.3000021  42.0700026  39.9200010  58.8900042  42.7800035
  40.1999998  58.9900017  40.5800009  39.7100019  59.6500015  39.8700023
  39.6900010  58.0200005  40.6800032  41.7600012  58.8700008  40.4500008
  42.1300030  59.0500021  39.4500017  42.0600033  57.8400040  40.6599998
  42.3400021  59.8700047  41.4700031  43.0700016  59.3600035  42.1000004
  43.0800009  60.9800053  40.7700014  42.6200008  62.0700026  40.4800034
  44.3600035  60.6500006  40.5299997  44.6300030  59.7400045  40.8700037
  45.4500008  61.4700031  39.8800015  45.2400017  62.5300026  39.7700024
  46.7500019  61.2100029  40.7200003  46.9099998  60.1400042  40.8900023
  48.0600023  61.7800045  40.0000000  47.8900003  62.8200006  39.7300029
  48.9400005  61.7100048  40.6100035  48.2800007  61.4200020  38.9900017
  46.6700029  61.8100023  42.0600033  45.6800032  61.5900040  42.4500036
  47.3900032  61.4000034  42.7800035  46.6600037  62.8900051  41.8900013
  45.6300020  61.0200024  38.3800030  45.6300020  61.9100046  37.5100017
  45.8700037  59.7400045  38.0700016  45.7900000  59.0400028  38.8000011
  46.0000038  59.3800020  36.6600013  45.1900005  59.8700047  36.1200023
  47.3699999  59.8700047  36.1100006  47.5600004  60.9300041  36.3100028
  47.1500015  59.8100042  35.0400019  48.4800005  59.1100025  36.4700007
  49.2100000  59.7000027  36.2200022  45.9600019  57.7900028  36.4900017
  46.1100006  57.1200037  37.4900007  45.6900024  57.3100042  35.2700019
  45.5500031  57.9000044  34.4500017  45.6900024  55.8500004  35.0300026
  45.1500034  55.4800034  35.9000015  44.9500036  55.4900026  33.7200022
  43.8700008  55.5700016  33.7800026  45.2500010  54.4600010  33.5500026
  45.3600025  56.3000011  32.5400019  46.5000010  56.1000013  32.0200014
  44.6200037  57.2100019  32.1800017  47.1800041  55.2800035  35.1300025
  47.3400021  54.0700006  35.3900027  48.2100010  56.1600018  34.9800014
  48.0600023  57.1400023  34.7500014  49.6300030  55.8800030  35.2400017
  49.7900009  54.9200010  34.7600007  50.5700016  57.0400047  34.7100019
  51.4800024  56.9200039  35.2900028  50.1500034  58.0000019  34.9900007
  50.9600019  57.0100021  33.2100010  51.3000011  56.0200024  32.9400015
  51.7800045  57.7300024  33.0800009  49.8500013  57.4800014  32.2800016
  49.0100002  56.7800045  32.2700024  50.3100014  57.4300051  31.3000011
  49.4400024  58.8600016  32.5100017  50.1100016  59.6200037  32.4200010
  48.2900000  59.4200039  32.5500011  47.1200037  58.8100004  32.3300004
  47.0100021  57.8100014  32.3700023  46.3000011  59.4000006  32.3000026
  48.2300043  60.7200050  32.7600026  49.0900040  61.2400007  32.6900005
  47.4400043  61.3100052  32.5900006  49.9100018  55.6900024  36.7900014
  50.4000044  54.5800018  37.1200013  49.3400002  56.4200020  37.6900029
  48.7700033  57.1800041  37.3800015  49.3400002  56.2200022  39.1500020
  50.3300047  55.9300041  39.5000029  48.8900042  57.3900032  39.9400020
  47.9400015  57.8100014  39.6200013  48.7400007  57.2000027  41.4499998
  48.2900000  58.1600046  41.7400026  47.9500008  56.4900017  41.6900015
  49.6700001  56.9900036  41.9900036  50.0400019  58.3700037  39.7800016
  50.2900028  58.7100029  38.7800026  49.8200035  59.2900038  40.3400040
  51.0100031  57.9600048  40.0900030  48.4600019  55.0100040  39.5700026
  48.8500023  54.2900038  40.4600000  47.3200035  54.6800041  38.9000010
  46.9400024  55.2400017  38.1400013  46.6000032  53.4200048  39.2000008
  46.2900019  53.5300016  40.2400017  45.3100014  53.3000040  38.4600019
  45.5000019  53.4200048  37.3900008  44.5000029  52.0500040  38.6300015
  44.1000032  51.8400002  39.6200013  43.6199999  52.0300007  37.9900026
  45.0900030  51.2100029  38.2600021  44.3500042  54.1700029  38.9000010
  43.6900043  54.3500042  38.2200027  47.4700022  52.2200012  39.0600014
  47.6500034  51.3600016  39.9500012  48.0900002  52.0500040  37.8900027
  47.8900003  52.7100039  37.1400023  48.9500046  50.9000015  37.6600027
  48.3700037  50.0500011  38.0000019  49.4200039  50.8500004  36.1600018
  50.1100016  51.6900015  36.1500025  48.5600042  51.0300016  35.5300021
  50.3400040  49.6000004  35.7300019  49.7100019  48.7300014  35.7300019
  51.0700035  49.4700003  36.5200019  50.8900023  49.9400043  34.3200016
  50.1800013  50.4600000  33.6800027  51.1700010  49.0400028  33.7900019
  52.2100019  50.7400036  34.5100021  52.7700043  50.1700020  35.2300024
  51.9600010  51.7200041  34.9300027  52.9700041  50.9300041  33.2200027
  52.4500036  51.6500044  32.7400017  53.8600016  51.3600016  33.4300017
  53.0300045  50.0200033  32.7600026  50.1100016  50.8300018  38.5800028
  50.3900003  49.7300005  39.0400028  50.6600046  52.0200014  38.9000010
  50.3300047  52.8500032  38.4200025  51.6500044  52.1800041  40.0200033
  52.4300003  51.4200020  39.9400020  52.4800014  53.4500027  39.6700025
  53.2300043  53.5400009  40.4600000  51.8700027  54.3300009  39.8800015
  53.2300043  53.5500002  38.0700016  51.0800028  52.2400045  41.4400005
  51.7800045  52.6200008  42.3699999  49.8100042  51.8900013  41.6600037
  49.1900015  51.9600010  40.8700037  49.3500042  51.9500017  43.1400013
  50.1900005  51.8500042  43.8300037  48.5600042  53.2800007  43.3900023
  47.9000044  53.1100035  44.2500019  47.8600025  53.5100031  42.6000023
  49.4800043  54.6900034  43.7400007  48.3200026  50.8700037  43.5400009
  48.2600021  50.3700018  44.6700001  47.3699999  50.4900026  42.6400042
  47.3900032  50.8100033  41.6800022  46.4700031  49.2900038  42.9000044
  46.5400028  49.0400028  43.9600039  45.0200033  49.7700024  42.8100014
  44.3300009  48.9300013  42.8000021  44.5700026  50.5700016  43.9600039
  45.2600002  51.4100027  44.0400028  43.5300016  50.8600044  43.8800001
  44.6800041  49.9400043  44.8500013  44.6600008  50.4600000  41.6300011
  43.8100004  50.8800030  41.6400003  46.8200016  48.0200005  42.1500015
  46.3300037  46.9900036  42.4800014  47.6800013  48.0800009  41.1400032
  48.1700039  48.9700031  41.0400009  48.1900024  46.9000006  40.4200029
  47.5600004  46.0500002  40.6700039  48.1400013  47.2100019  38.8700008
  49.1300011  47.4800014  38.5100007  47.6600027  48.1700039  38.6800027
  47.6100016  46.0300016  38.0400014  46.5799999  45.8300018  38.3400011
  48.1600046  45.1200008  38.2600021  47.8100014  46.3000011  36.6200018
  48.7600040  45.7700014  36.0100007  47.0000029  47.0000029  35.9800029
  49.5800018  46.3900042  40.8300018  50.0800037  45.3200006  40.4100037
  50.1900005  47.0400000  41.7700005  49.6600008  47.7700043  42.2100019
  51.4900017  46.8300009  42.3699999  51.6400003  45.7500029  42.4200010
  52.6900005  47.4700022  41.6300011  52.6500034  46.9800043  40.6599998
  53.7000036  47.5000000  42.0500040  52.2800016  48.8200045  41.2900019
  52.2100019  48.7900019  40.3299999  51.5200043  47.3000002  43.7800026
  50.8000040  48.1800032  44.2400026  52.3600006  46.7700005  44.5900011
  52.6400042  45.8800030  44.2000008  52.7000046  47.2200012  45.9700012
  52.1200037  48.1300020  46.1000013  52.2200012  46.1199999  46.9300032
  52.5500011  45.1400042  46.6000032  51.1400032  46.1500025  46.8600035
  52.5700045  46.2900019  48.3900023  53.6300039  46.5100002  48.5100031
  51.7600012  47.3300028  49.2200041  52.1300030  48.2200003  48.7300014
  50.6800032  47.2000027  49.1200018  52.1200037  47.3900032  50.2500010
  52.3900032  44.9300003  49.0500021  51.3400030  44.6800041  48.9400005
  53.0200005  44.2500019  48.4800005  52.7400017  44.8800039  50.0900030
  54.1900015  47.4500036  46.0500002  54.6200037  48.5800028  46.2500000
  54.9600029  46.4100027  45.6700039  54.3700027  45.6200027  45.4300022
  56.4200020  46.2100029  45.6100035  56.7300034  46.9200039  46.3700008
  56.9000006  44.8300028  46.0500002  57.9400015  45.0100040  46.3700008
  56.2900019  44.3200016  47.3600006  56.7000008  43.3700037  47.7100039
  56.5100050  45.0600004  48.1300020  55.2200031  44.1300011  47.2800016
  57.0700026  43.7300014  45.0400019  57.7000046  42.9300022  45.4200029
  56.1400032  43.3400011  44.6000004  57.6600027  44.1300011  44.2200041
  56.9800043  46.7000008  44.3200016  58.0900049  47.2200012  44.3400002
  56.3000011  46.6600037  43.1900024  55.4800034  46.1000013  43.2500029
  56.6300011  47.2700024  41.8300009  57.7000046  47.4300003  41.6900015
  56.2000036  46.1500025  40.8100033  56.0300016  46.6800022  39.8700023
  55.2800035  45.7300043  41.2000036  57.2100019  45.0600004  40.6500006
  58.2700014  45.3900003  40.0500011  56.9100046  43.8200045  40.7300043
  55.9800005  43.6000013  41.0500002  57.6100016  43.1200027  40.4700041
  56.1800003  48.6900043  41.4900017  56.2400007  49.1300011  40.3400040
  55.8100033  49.4600010  42.5200033  56.0000038  49.2500019  43.4899998
  55.2900028  50.8300018  42.2500038  54.5100021  50.8800030  41.5000010
  54.6100044  51.3000011  43.5100031  54.3200016  52.3500013  43.4500027
  55.1900005  51.1900043  44.4300032  53.3400011  50.5000019  43.9499998
  53.5800028  49.4400024  44.1300011  52.4900007  50.5200005  43.2800007
  52.8700018  51.0700035  45.3000021  52.9200029  52.1600008  45.2600002
  53.6300039  50.6900024  45.9900045  51.5000010  50.5700016  45.7200003
  51.0000038  49.9300003  45.1200008  50.9800005  50.9200001  46.8800020
  51.6000032  51.6000032  47.8000021  52.5500011  51.9400024  47.6700020
  51.2000036  51.6100025  48.7300014  49.8100042  50.4500008  47.1900034
  49.1200018  50.1900005  46.4900017  49.4400024  50.6200027  48.1100035
  56.4200020  51.8000031  41.8900013  56.2300014  52.6200008  40.9899998
  57.6000023  51.7900038  42.5900030  57.6500034  51.2100029  43.4100008
  58.9100027  52.4600029  42.2700024  58.5700035  53.4900045  42.2100019
  59.8500013  52.4000025  43.4899998  60.2700043  51.4000034  43.6600018
  59.2200041  52.5600004  44.3500042  60.9100008  53.4900045  43.6400032
  61.4800024  53.1700039  44.5200014  60.4700041  54.4800043  43.7300014
  62.0300007  53.4800005  42.5600004  62.6900053  54.3200016  42.7800035
  61.4800024  53.8100004  41.6700029  62.7200031  52.2100019  42.3100042
  63.1300020  51.6900015  43.0800009  62.9700041  51.6000032  41.1700010
  62.6300049  52.0800018  40.0000000  62.3400021  53.0400038  39.8300028
  62.8000021  51.4800024  39.2000008  63.4800053  50.4600000  41.1199999
  63.7800026  50.0600004  42.0000029  63.7600040  50.0400019  40.2400017
  59.3900013  52.1300030  40.8700037  59.6300030  53.1400013  40.1400042
  59.5600033  50.8700037  40.3999996  59.7100019  49.6800041  41.1600018
  58.7200022  49.3800020  41.4900017  60.4300022  49.7400045  41.9700003
  60.3700018  48.6800003  40.2500010  60.0200033  47.6700020  40.4400015
  61.4500046  48.7400007  40.2800035  59.9200010  49.0300035  38.8400030
  58.9700031  48.5700035  38.6300015  60.5600023  48.8900042  37.9700017
  59.8300028  50.5500031  38.9800024  60.7800007  50.9900045  38.6900020
  58.7800026  51.2100029  38.0900025  59.2000008  51.7100048  37.0900011
  57.5300026  51.0500002  38.4500027  57.2900009  50.4900026  39.2400026
  56.4500046  51.6400003  37.6200008  56.4300013  51.1900043  36.6300011
  55.1000023  51.1600018  38.1900024  55.0400019  51.4500046  39.2400026
  55.1200008  50.0700045  38.2200027  53.5700035  51.6800022  37.3400021
  56.5600014  53.1600046  37.3300028  56.5500021  53.6600018  36.1800027
  56.8200016  53.8200045  38.4300017  56.6700029  53.3800030  39.3400025
  57.2500038  55.1800013  38.5600019  56.5500021  55.8100033  38.0200028
  57.2300005  55.5100012  40.0300026  58.0500031  55.0900030  40.6100035
  56.3100004  55.0300026  40.3600025  57.1400023  57.0300007  40.2700043
  58.3500051  57.7300024  40.6100035  59.2700005  57.1500015  40.6500006
  58.2800007  59.0500021  40.9600019  59.2100048  59.4500017  41.3500023
  57.0000029  59.7000027  40.9000015  56.9100046  60.7300043  41.2300014
  55.8500004  59.0700006  40.4800034  54.8700047  59.4800043  40.6599998
  55.9200048  57.7200031  40.2200031  55.0100040  57.1500015  40.0699997
  58.6100006  55.5400038  37.9300022  58.7200022  56.7500019  37.7200007
  59.5500040  54.5700026  37.6800013  59.4300032  53.7400007  38.2500029
  60.8000040  54.7600031  36.8600011  60.9900045  55.8200026  37.0200014
  62.0300007  54.0100002  37.4000025  62.8900051  54.0700006  36.7300010
  61.7900038  52.9600048  37.6200008  62.3000050  54.6600008  38.6300015
  62.5300026  55.5900049  38.5500026  60.6100035  54.4600010  35.4000020
  61.2800026  55.1200008  34.5400023  59.7200012  53.6200047  35.1200008
  59.2500019  53.0600023  35.8300018  59.3400049  53.4000015  33.7100005
  60.2600050  53.4600019  33.1200027  58.7500048  52.0400047  33.4300017
  59.4000006  51.2500048  33.8200021  57.7900028  51.9500017  33.9300013
  58.7000036  51.9100046  32.3500013  58.4400034  54.4900036  33.1500006
  58.4700012  54.7800016  31.9600010  57.7300024  55.2200031  34.1100025
  57.5500011  54.8500013  35.0300026  57.2000027  56.5900040  33.8800025
  56.8500042  56.6900015  32.8500009  55.9300041  56.7400026  34.7500014
  56.0500050  56.4300013  35.7900023  55.3200006  55.9600019  34.3100023
  55.2900028  58.1500006  34.7800016  56.0400009  58.8300037  35.1700020
  54.9300003  58.6400032  33.3300018  54.3700027  57.9400015  32.7100015
  54.3500042  59.5700026  33.3900023  55.8500004  58.9200020  32.8100014
  54.0400028  58.2200050  35.6600022  54.3400049  58.2300043  36.7100024
  53.4200048  59.0800047  35.4100013  53.5300016  57.2700024  35.5100012
  58.4100008  57.6100016  34.0400004  59.0500021  57.6200008  35.1000023
  58.7100029  58.4200048  33.0700016  58.3100033  58.2800007  32.1600008
  59.8300028  59.4100046  33.1800008  60.2000046  59.2500019  34.1900015
  61.0500050  58.9700031  32.3700023  60.7600021  58.9100027  31.3200021
  61.3000011  57.9700041  32.7200007  62.3000050  59.8800039  32.6000023
  61.9400024  60.8100033  32.1500015  63.1200027  59.5100021  31.9900012
  62.6500034  60.0300026  34.0600014  62.4400043  59.1700029  34.8900008
  63.0900049  61.1900043  34.4000006  59.3200016  60.8000040  32.8800011
  59.5800018  61.6600037  33.6900020  58.5700035  60.8600044  31.8200016
  58.3700037  59.9500036  31.4400005  57.6800013  61.9600010  31.3900018
  57.5600004  62.6300049  32.2400022  58.3200026  62.7000046  30.2600026
  58.5300016  62.1000051  29.3700004  57.3100042  63.7700033  29.6900010
  57.2400045  64.5800018  30.4300022  57.6600027  64.2500019  28.7800002
  56.2700033  63.4700012  29.5300007  59.6400023  63.2000017  30.6100011
  60.3400040  62.3800039  30.7200003  59.9600029  63.8500023  29.7900009
  59.5200014  63.9100027  31.4300013  56.2300014  61.3900042  31.0700011
  56.0600042  60.3300047  30.4100013  55.1800013  62.1200037  31.4300013
  55.3800011  62.9000044  32.0300007  53.8200045  61.7200041  31.2800026
  53.8200045  60.6600046  31.0500026  52.9400015  62.0700026  32.5100017
  53.1000042  63.1300020  32.6600027  53.3100033  61.4600039  33.3400011
  51.4800024  61.6200018  32.2900009  50.6200027  62.1100044  33.0300021
  51.2500048  60.6900024  31.5600014  53.2100010  62.4100018  30.0600004
  52.5100040  63.3800030  30.2000022  53.7000036  62.0100021  28.8900018
  54.3500042  61.2400007  28.8100004  53.2800007  62.5100040  27.5800014
  53.5700035  63.5600042  27.5500011  54.1200018  61.9100046  26.5000010
  53.7300014  62.3400021  25.5700016  53.9900017  60.8300018  26.5100002
  55.6000042  62.3000050  26.6200018  56.0200024  62.0100021  27.5900006
  55.6700039  63.3800030  26.6400003  56.4800024  61.8200016  25.4400015
  56.7800045  60.5600023  25.2900004  56.8600035  62.6600027  24.5800018
  51.7400026  62.4800014  27.3100019  51.2700033  63.2200050  26.4000010
  51.0400009  61.7200041  28.1400013  51.4900017  61.3500023  28.9700007
  49.5500040  61.8100023  28.2700014  49.2000008  61.7300034  27.2300005
  48.8500023  60.6700039  29.0800023  49.3900013  60.6600046  30.0300026
  47.3200035  60.7700014  29.3300009  46.9099998  59.7600031  29.4800019
  47.2200012  61.3900042  30.2200007  46.9300032  61.2000036  28.4000015
  49.2000008  59.4500017  28.3900023  50.1000023  59.1700029  28.6200023
  49.0700006  63.1300020  28.7700009  47.9800034  63.5500050  28.4300017
  49.8300028  64.0400028  29.4400024  50.6700039  63.6500025  29.8200011
  49.4600010  65.4100037  29.8400021  48.3700037  65.5100012  29.8900008
  50.1600027  65.7800055  31.1900020  51.2200022  65.5100012  31.1800003
  49.7000027  65.1700020  31.9800019  50.0400019  67.2400045  31.6000009
  49.0100002  67.6100016  32.5100017  48.4200001  66.7800045  32.8400016
  48.8100004  68.9100027  33.0000019  47.9900026  69.1600037  33.6700010
  49.7500038  69.9200010  32.7700019  49.4700003  71.2100029  33.1600022
  50.0900030  71.9100046  32.9600024  50.8000040  69.5800018  31.8400025
  51.5500021  70.3100014  31.5900016  50.9300041  68.2800055  31.1900020
  51.7200041  68.1300020  30.4800010  49.9800014  66.4000034  28.7600017
  51.1800003  66.4400053  28.3800006  49.1100025  67.3300028  28.3400011
  48.2000017  67.2900009  28.7800002  49.3400002  68.3900023  27.2900009
  50.3800011  68.4100056  26.9700003  48.5200024  68.0400038  26.0600019
  47.5000000  67.9400015  26.4500022  48.4600019  69.2000055  25.1000023
  49.4100046  69.7500038  25.0500011  48.1100035  68.9000034  24.1200018
  47.7000046  69.8800039  25.5000019  48.8800001  66.7200041  25.3200006
  49.0400028  65.8900023  26.0100007  48.0900002  66.3700008  24.6600008
  49.7900009  66.9200039  24.7600007  48.8900042  69.7500038  27.8900003
  47.7800035  69.8500013  28.4800005  49.7400045  70.7600021  27.9000020
  51.2000036  70.7400036  27.5300002  51.3200045  70.3400040  26.5300012
  51.8300009  70.2000046  28.2400012  51.6100025  72.2500038  27.4300003
  51.3100004  72.6200056  26.4500022  52.6700020  72.4400043  27.6200008
  50.7000017  72.9300022  28.4400010  50.3900003  73.9500046  28.2200003
  51.2200022  72.7600050  29.3900013  49.4100046  72.1300030  28.4900022
  49.1800022  71.9800043  29.5500016  48.2600021  72.8100014  27.7300024
  48.1100035  72.6500034  26.5500021  47.4500036  73.5200024  28.4700012
  47.4900007  73.2600021  29.4400024  46.7500019  74.7900057  27.9300022
  46.9099998  74.7900057  26.8600011  45.2200031  74.6800041  28.2400012
  44.7300005  75.5900049  27.9300022  45.0600004  74.3600035  29.2700005
  44.5500040  73.5400057  27.4200010  45.0300026  72.6200056  27.7700019
  44.7500038  73.8200045  26.3800001  43.0400038  73.5000038  27.7100015
  42.6600027  74.4600058  27.4100018  42.9100037  73.3500051  28.7800002
  42.4000025  72.3700047  26.8900013  41.3199997  72.4300051  27.0500016
  42.8000021  71.3900042  27.1500015  42.7900028  72.4200058  25.4500008
  42.1400023  71.8000031  24.9800014  42.5500011  73.2800055  24.9800014
  43.7800026  72.2300053  25.3400016  47.3600006  76.2100029  28.4000015
  48.4400034  76.6100025  28.0600023  46.6300011  76.9600058  29.2100024
  45.8000040  76.5800047  29.6300006  46.9800043  78.3700037  29.5400023
  47.6500034  78.7500048  28.7700009  45.7700014  79.2500019  29.4700003
  46.0100031  80.1000023  30.1000023  44.9500036  78.6200047  29.8000026
  45.6300020  79.6900034  28.0200005  45.4400015  78.8300037  27.3800015
  46.5600014  80.0900078  27.6400018  44.5500040  80.7400036  27.8700018
  44.8300028  81.9799995  27.8700018  43.3400011  80.3299999  27.8000021
  47.7500010  78.5300016  30.9400010  47.4400043  77.8200054  31.9200015
  48.6300039  79.5000029  31.0000014  48.9300013  79.9600029  30.1500010
  49.4600010  79.7900057  32.1600008  50.0000000  78.8700056  32.4100018
  50.5600023  80.7999992  31.8900013  50.1300001  81.8000031  31.7700005
  51.0600042  80.6100082  30.9400010  51.6500044  81.0000038  32.9500008
  51.7900038  82.2500038  33.6000013  51.1200047  83.0800056  33.3900023
  52.7000046  82.3400021  34.6800017  52.8300047  83.2900047  35.1900005
  53.6100006  81.2800026  34.8900008  54.3600035  81.4300060  35.6600022
  53.4800005  80.1100063  34.2200017  54.1100025  79.2600060  34.4500017
  52.4100018  79.9100018  33.3500028  52.2400045  78.9400053  32.9100013
  48.6600018  80.3700066  33.3000016  47.6300001  80.9600067  33.0800009
  49.1000032  80.0699997  34.5600009  49.7600031  79.3100023  34.5800018
  48.5300016  80.4699993  35.8300018  47.5900030  79.9500036  35.9700012
  49.3800020  79.9100018  37.0000029  50.2900028  80.5200005  37.0400023
  49.6600008  78.8800049  36.7600012  48.8400030  80.0000000  38.3700013
  48.5700035  81.1600018  38.7700009  48.6700010  78.9400053  39.1300011
  48.9900017  78.1000042  38.6500025  48.4000015  78.9500046  40.1000023
  48.4300041  82.0100021  35.8900023  49.3000031  82.8000069  35.5600023
  47.2700024  82.3700047  36.4200020  46.5600014  81.7000008  36.6400027
  46.7900038  83.7700081  36.6600013  47.6000023  84.4900036  36.5200019
  45.8200026  84.1800022  35.5500007  46.0800028  83.6700058  34.6300006
  44.7900009  83.9200020  35.8300018  45.7200003  85.2700043  35.4200006
  46.2300014  83.8899994  38.0600023  45.7100010  84.9100018  38.4600019
  46.4000034  82.8800011  38.9000010  46.9600010  82.1300030  38.5400009
  45.7000017  82.8299999  40.2100039  45.1200008  83.7500000  40.3800011
  44.8300028  81.5500069  40.1999998  45.5100012  80.7200050  40.0100040
  44.2300034  81.6499996  39.3000031  43.8800001  81.2700081  41.2500000
  44.5700026  81.0100079  42.0600033  43.2800007  80.3900051  41.0200024
  42.9100037  82.4500084  41.5900040  43.0900002  83.0900002  42.7100039
  41.9300032  82.6800060  40.8200026  46.6300011  82.7300072  41.4000034
  46.3500023  83.2700062  42.5100040  47.7800035  82.0499992  41.3000011
  47.9700041  81.5100002  40.4600000  48.7200022  81.8200016  42.4100018
  48.4900045  82.5100040  43.2200003  48.6900043  80.4400063  43.0200005
  49.4700003  80.3900051  43.7900019  47.3800039  80.0000000  43.6700010
  47.4900007  78.9500046  43.9300013  47.1600008  80.5600071  44.5800018
  46.4700031  80.2000046  43.1000042  48.9900017  79.5100021  42.0300007
  49.3900013  78.7300014  42.4100018  50.1200008  82.1900082  42.1000004
  50.7500029  82.7500057  42.9900026  50.5400038  82.0400047  40.8700037
  49.8500013  81.8400002  40.1700020  51.7200041  82.7400017  40.3100014
  52.5600004  82.6500034  41.0100031  52.1000004  82.1100044  38.9900017
  51.4400005  82.5000000  38.2100010  51.9300032  81.0300064  38.9500022
  53.5500002  82.3099995  38.5200024  53.9600039  83.5200024  37.9700017
  53.2600021  84.3600082  37.9300022  55.2400017  83.7000084  37.3700023
  55.5500031  84.6600056  36.9800019  56.1700010  82.6600075  37.4400020
  57.1800041  82.7800083  37.0900011  55.7300043  81.4300060  38.0800009
  56.3800049  80.5700016  37.9600024  54.4400024  81.2300014  38.6500025
  54.1100025  80.3200054  39.1000009  51.6100025  84.2500019  40.2800035
  52.6200008  84.9100018  40.2500010  50.4000044  84.8400021  40.2400017
  49.5900011  84.2500019  40.3900003  50.2300024  86.3000011  40.3100014
  50.8500004  86.7200089  39.5100021  48.7800026  86.6800022  39.9200010
  48.5700035  87.6800060  40.2800035  48.5700035  86.8600082  38.4500027
  47.5300026  87.1300030  38.2500029  49.1700029  87.6700020  38.0600023
  48.8200045  85.9300041  37.9200029  47.9000044  85.7800007  40.4500008
  47.4500036  85.3500080  39.7100019  50.6100035  86.8400002  41.6800022
  50.6200027  86.2000084  42.7300024  50.9400034  88.1200027  41.6700029
  51.0900021  88.5700035  40.7700014  51.5000010  88.7400055  42.8500032
  51.9300032  88.0000019  43.5300016  52.7400017  89.6500015  42.5300026
  53.0400038  90.0000000  43.5200024  52.3900032  90.4400063  41.8700027
  53.8900042  88.8900089  41.9400024  54.2600012  89.0300083  40.5800009
  53.8400030  89.7800064  39.9300027  55.3200006  88.3700085  40.0200033
  55.6700039  88.6400032  39.0300012  56.0200024  87.4100018  40.7300043
  56.9500017  87.0400047  40.3500032  55.6500006  87.1400070  42.1000004
  56.2200022  86.3800049  42.6200008  54.6300030  87.8900051  42.6700020
  54.3000031  87.5900078  43.6600018  50.3500032  89.4600010  43.6300039
  49.3500042  89.8300076  43.0100012  50.6200027  89.6800041  44.9600029
  51.4700031  89.3100071  45.3500032  49.7600031  90.4300022  45.9100008
  49.1300011  91.1600018  45.3800011  48.8600016  89.4099998  46.6800022
  49.5400047  88.9100075  47.3699999  48.4000015  88.7300014  45.9700012
  47.8200006  90.0100040  47.5700045  47.4500036  89.6300030  48.8400030
  46.2900019  90.3500080  49.0700006  45.7400036  90.4200077  49.9900007
  45.9900045  91.1700058  48.0300045  45.2100039  91.8000031  47.9800034
  46.9700003  91.0000038  47.1100044  46.9900036  91.4100075  46.1100006
  50.6300020  91.0900021  46.9600010  51.5600014  90.4800034  47.4800014
  50.2500010  92.3200035  47.3100042  49.4600010  92.7700043  46.8600035
  50.9100008  93.1400013  48.2400036  51.7200041  93.6800003  47.7500010
  49.8300028  94.2200089  48.5100031  50.1200008  94.9100018  49.3100023
  49.9100018  94.8600006  47.6300001  48.8600016  93.7900066  48.7500000
  51.2800026  92.5500011  49.6200037  52.2000027  92.9300022  50.3300047
  50.6000042  91.4500046  50.0200033  49.9500036  91.0300064  49.3600035
  50.8300018  90.7700062  51.3100004  51.0900021  91.6100025  51.9400024
  49.6000004  90.0100040  51.7700005  49.5400047  89.0799999  51.1900043
  48.7700033  90.6900024  51.6000032  49.4600010  89.6900082  53.2900047
  48.5900021  88.9100075  53.7300014  50.1400042  90.3600025  54.1300011
  52.1100044  89.8300076  51.2200022  52.5300026  89.3200016  52.2500038
  52.7300024  89.7000027  50.0700045  52.3200035  90.1200008  49.2400026
  53.8100004  88.6600018  49.8700047  53.5500002  87.7500057  50.4000044
  54.0300035  88.3100033  48.3700037  53.0300045  88.2000065  47.9600000
  54.7700024  86.9300079  48.2200003  55.8100033  86.9400024  48.5700035
  54.2600012  86.0400009  48.5500002  54.8400021  86.6000080  47.1900034
  54.7800016  89.4200039  47.5900030  55.8400011  89.4600010  47.8800011
  54.4100046  90.3999996  47.9000044  54.6700048  89.3300056  46.0600042
  55.2500010  90.1500034  45.6400013  55.0600004  88.4400082  45.5900002
  53.6200047  89.4000053  45.7800007  55.1900005  89.1700077  50.4500008
  56.1500025  88.4500027  50.5600023  55.2500010  90.4400063  50.8400011
  54.5200014  91.0900021  50.6000042  56.3700008  90.9800053  51.6100025
  57.2300005  90.5100060  51.1300039  56.3800049  92.5500011  51.5200043
  57.1300030  93.0900002  52.1000004  55.3900003  92.8200054  51.8700027
  56.6400003  93.1400013  49.7800016  56.3300037  90.5300045  53.0700016
  57.3700047  90.4800034  53.7000036  55.0900030  90.3100014  53.6100006
  54.2300034  90.4200077  53.0800009  54.8500013  89.8100090  54.9500036
  55.5200005  90.3700066  55.6000042  53.3800030  90.0100040  55.4000044
  52.8300047  89.0900040  55.2300024  53.0900002  90.4800034  56.8200016
  53.6200047  91.3900089  57.1200037  52.0100021  90.5700016  56.8800020
  53.3300018  89.6100044  57.4200010  52.7800035  91.0600090  54.6800041
  51.8900013  90.7600021  54.4300032  55.1500034  88.3300018  55.1900005
  55.2500010  87.9600048  56.3500023  55.4600048  87.6600075  54.1200018
  55.2800035  88.1500053  53.2600021  56.2100029  86.3800049  54.1100025
  55.8600044  85.8600044  55.0000048  55.9700012  85.7100010  52.7500010
  56.4900017  84.7500038  52.7300024  56.4000034  86.4300060  52.0500040
  54.5500040  85.3999996  52.3600006  53.9200020  86.2900066  52.2700024
  54.5200014  84.6900082  51.0000038  53.5700035  84.8600006  50.5100012
  55.2700043  85.0900078  50.3100014  54.6300030  83.6100006  51.1100006
  53.9800024  84.4900036  53.4300041  52.9300022  84.2900085  53.2400036
  54.5600033  83.5700035  53.5300016  53.9500046  84.9800014  54.4000006
  57.7600050  86.5100002  54.2700005  58.4100008  87.5000000  54.0100002
  58.3100033  85.3900051  54.7400045  57.6700020  84.6600056  55.0000048
  59.7400045  85.1700020  55.1500034  60.2000046  86.1400032  55.3500032
  59.7800016  84.2800045  56.3900042  59.0400028  84.5900059  57.1300030
  60.8100033  84.2900085  56.7400026  59.4700050  82.9500008  56.1100006
  58.5100031  82.9300022  56.1500025  60.6500006  84.6000004  54.0000010
  60.1100016  84.2400074  52.9700041  61.9100046  84.5700073  54.1400003
  62.2500038  84.9600029  55.0100040  62.9100037  83.9600086  53.2100010
  62.8300047  84.3700027  52.2000027  64.2700052  84.4500065  53.6900043
  64.3900013  84.0200043  54.6800041  64.2900038  85.5200005  53.9100027
  65.4700041  83.9500046  52.8800011  65.5200052  82.8600025  52.8600025
  66.3300037  84.3100071  53.4500027  65.5900049  84.5500088  51.4700031
  66.4200020  84.0799999  50.6200027  64.8800039  85.5500031  51.1100006
  62.7100039  82.4400043  53.0500031  62.7900028  81.8800068  51.9200039
  62.3700047  81.7700005  54.1600037  62.3800039  82.2399998  55.0600004
  61.9200039  80.3400040  54.1700029  62.6400042  79.7500038  53.6000013
  61.8600035  79.6600056  55.5100012  61.5700006  78.6200047  55.3300047
  61.1300039  80.1399994  56.1700010  63.2200050  79.5000029  56.3200045
  63.4300041  80.3400040  56.9700050  64.0700054  79.5300055  55.6400013
  63.1600046  78.1400061  57.0400047  63.3300018  77.2900057  56.3900042
  62.1900034  78.0700016  57.5400019  64.2800045  78.1200027  58.0800009
  64.0100050  77.4300051  58.8800049  64.3000031  79.1600037  58.4100008
  65.6100035  77.7000046  57.5700045  65.9900045  78.2200050  56.7800045
  66.2600040  77.8200054  58.3400011  65.6100035  76.7300034  57.2800016
  60.5900049  80.2000046  53.4200048  60.5400038  79.2800045  52.5300026
  59.6100044  81.0599995  53.5500002  59.5400047  81.6100025  54.4000006
  58.3700037  81.0800076  52.7100039  58.0300045  80.0500011  52.5300026
  57.3100042  81.8200016  53.5000038  56.4900017  81.9799995  52.7900028
  57.6100016  82.8100014  53.8300037  56.7200041  81.2200069  54.7900009
  57.5700045  80.7100010  55.2600050  55.9900045  80.4600048  54.5100021
  56.0000038  82.2500038  55.7100010  54.8200035  82.0600033  56.1100006
  56.6500044  83.2600021  56.0100031  58.6200047  81.6300011  51.3500023
  57.9500008  81.2600040  50.4100037  59.7200012  82.3600006  51.0700035
  60.2300024  82.6900005  51.8600035  60.1900005  82.5699997  49.7100019
  59.2800045  82.8200054  49.1400003  61.2300014  83.6700058  49.4800043
  61.9000006  83.3900070  48.6900043  61.6600037  83.8700008  50.4600000
  60.5800009  85.0699997  49.1900015  59.8400021  85.3100014  49.9600029
  60.0500011  85.0100040  48.2400036  61.6300011  86.1300087  49.1900015
  61.1500025  87.0600033  48.8800001  62.4100018  85.9200001  48.4600019
  62.2100019  86.3300037  50.5000019  63.1800032  86.0500050  50.5300045
  61.8100023  87.0400047  51.5100002  60.6400013  87.5300026  51.6700029
  59.9300051  87.3600006  50.9700012  60.5100012  88.1800079  52.4400043
  62.6600027  87.2900009  52.4600029  63.6000013  86.9099998  52.4200010
  62.3900032  87.7700043  53.3000040  60.6400013  81.3000011  49.0700006
  60.3100014  81.1500072  47.8600025  61.3200045  80.3700066  49.7300005
  61.7800045  80.5600071  50.6000042  61.6100025  79.0600014  49.1500044
  62.1600008  79.2000055  48.2200003  62.6700020  78.2300043  49.8700047
  62.8200006  77.2400045  49.4200039  62.2800016  78.0900049  50.8800030
  64.0700054  78.9500046  49.9800014  63.9500046  80.0400066  50.0000000
  64.7100019  78.7100029  49.1200018  64.7700024  78.5300016  51.2000036
  65.1100016  77.3500013  51.3800001  64.9600029  79.4800043  52.1100044
  64.5400047  80.3999996  52.0100021  65.5500031  79.2800045  52.9100037
  60.4000044  78.1300020  48.8100004  60.3100014  77.6300049  47.7000046
  59.4300032  78.0500031  49.7100019  59.4800043  78.5500050  50.5800009
  58.1300020  77.4600029  49.3100023  58.2900047  76.4400053  48.9600039
  57.0600033  77.4900055  50.4400015  56.6300011  78.4800053  50.5600023
  55.8000040  76.7400026  49.9100018  55.9600019  75.6900024  49.6500015
  54.9900007  76.9100046  50.6200027  55.4600048  77.2300053  49.0000010
  57.4800014  77.0600033  51.7700005  56.5800047  77.2400045  52.3600006
  58.2400036  77.7400017  52.1300030  57.9600048  75.6000042  51.8900013
  58.8800049  75.4200029  51.3300037  58.0600023  75.1500034  52.8800011
  57.2100019  75.0000048  51.3800001  57.5400019  78.1600046  48.1100035
  57.3000050  77.5700045  47.0900011  57.3800039  79.4600058  48.1500006
  57.6800013  80.0000000  48.9600039  56.6100025  80.2200031  47.1500015
  55.6300020  79.7900057  46.9900036  56.3700008  81.6100025  47.8000021
  57.3200035  82.0400047  48.1100035  55.8600044  81.4400005  48.7600040
  55.7100010  82.6300049  46.9500017  56.2300014  82.7500057  46.0000038
  55.8200026  83.5700035  47.4900007  54.3000031  82.2700024  46.6900015
  53.6700010  82.2300053  47.5900030  54.2900038  81.4200020  46.0200024
  53.7300014  83.4600067  45.8800030  54.3800020  83.8199997  45.0800037
  53.6100006  84.3400002  46.5100002  52.4300003  83.0300045  45.3500032
  51.7200041  82.8999996  46.0700035  52.0200014  83.6200047  44.6400023
  52.5800037  82.1600056  44.8699999  57.3200035  80.3200054  45.7600021
  56.6000032  80.3299999  44.7700024  58.6300039  80.2800083  45.7200003
  59.2100048  80.2500057  46.5400028  59.3800020  79.9900055  44.5100021
  59.0700006  80.5600071  43.6400032  60.8800030  80.3999996  44.6500015
  61.5000010  80.0000000  43.8500023  61.2300014  80.0900078  45.6300020
  61.0300016  81.8800068  44.6100044  60.4700041  82.3900032  45.4100037
  60.6400013  82.2600079  43.6700010  62.4100018  82.4300003  44.8300028
  62.3300028  83.5000038  44.6200037  63.1800032  81.9700050  44.2100000
  62.8000021  82.2700024  46.2800026  62.8200006  81.2000084  46.4700031
  61.9800043  82.6600075  46.8900013  64.0100050  82.9400063  46.6500044
  63.9400053  83.9200020  46.4800024  64.2900038  82.8000069  47.6200008
  64.7900009  82.5300026  46.1500025  59.3000031  78.5500050  44.0799999
  59.2700005  78.3700037  42.8500032  59.3000031  77.5500059  44.8800039
  59.1800022  77.7100039  45.8700037  58.9800024  76.1900043  44.3600035
  59.6900034  75.9600019  43.5700035  59.2400026  75.1500034  45.4700041
  58.7200022  74.2500019  45.1500034  58.7900019  75.4200029  46.4300013
  60.7400036  74.8300028  45.5500031  61.2400007  75.7800055  45.7200003
  61.0800028  74.4800043  44.5700026  61.2800026  73.9400053  46.6700029
  60.7200050  73.7500048  47.7400017  62.4800014  73.4000015  46.5000010
  62.9900026  73.7000036  45.6800032  62.9200029  72.9600048  47.3000002
  57.5800037  75.9900045  43.6700010  57.4900007  75.6700039  42.5100040
  56.5600014  76.3400030  44.4000006  56.7100048  76.7600060  45.3100014
  55.2100039  76.3900042  43.8700008  54.8600006  75.4100037  43.5600042
  54.1900015  76.7400026  45.0000000  53.2000017  76.8000031  44.5400000
  54.0100002  75.7600021  46.2100029  53.5600042  76.2200022  47.0900011
  53.5300016  74.8600054  45.8600044  55.0400019  75.4600048  46.4200020
  54.6300030  77.9200029  45.6200027  53.9600039  78.0100060  46.3100004
  55.1000023  77.2600031  42.6100016  54.3900013  76.8200016  41.7100000
  55.8700037  78.2800055  42.4900007  56.5800047  78.3300018  43.2100010
  56.0900021  79.1000032  41.2200022  55.0600004  79.3600035  40.9899998
  56.8600035  80.3400040  41.5100002  57.7600050  80.0900078  42.0600033
  57.1600008  80.9200001  40.6400013  56.2300014  80.9600067  42.1500015
  56.7500019  78.2500029  40.1400042  56.1600018  78.1600046  39.0800023
  57.8600025  77.5300026  40.4100037  58.1800032  77.4300051  41.3600016
  58.5900021  76.6100025  39.5300007  58.8500023  77.1500015  38.6200023
  60.0100040  76.1300039  40.0699997  59.8400021  75.5500031  40.9899998
  60.5900049  77.0100021  40.3600025  60.8700037  75.2700043  39.1500020
  60.4000044  74.2900038  39.1200018  61.1000013  75.9600019  37.7900028
  60.1600027  76.1700058  37.2800016  61.7600012  76.8100023  37.9700017
  61.5400028  75.1900053  37.1700025  62.2000027  75.0600052  39.9200010
  62.5600052  75.9800053  40.3600025  61.9900036  74.4400024  40.7900000
  62.9100037  74.4900036  39.3000031  57.6300049  75.4200029  39.0700030
  57.6700020  75.1000023  37.8700018  56.7200041  74.9100018  39.9300027
  56.6900015  75.1600027  40.9100008  55.7200003  73.9000034  39.4500017
  56.2700033  73.0300045  39.0900016  54.8800039  73.4900045  40.6800032
  54.4200039  74.3600035  41.1400032  53.8600016  72.4600029  40.2200031
  53.4400034  71.9200039  41.0700035  52.9900026  73.0200052  39.8600030
  54.2700005  71.7400026  39.5100021  55.6400013  72.6900053  41.7600012
  56.4500046  73.3400011  42.0800018  55.0000048  72.5200033  42.6300001
  56.1000013  71.8300056  41.2700033  54.7900009  74.4300032  38.3200026
  54.6900034  73.7500048  37.3000026  54.3700027  75.7000017  38.3700013
  54.7400045  76.3200045  39.0800023  53.3300018  76.0700035  37.4100018
  52.6900005  75.2000046  37.3400021  52.6000023  77.3300028  37.9700017
  52.1000004  77.8000021  37.1200013  53.3300018  78.0200052  38.3700013
  51.6300011  77.1300030  39.1200018  51.2800026  78.1300020  39.3800020
  52.0400047  76.6400051  40.0100040  50.5400038  76.2000036  38.6200023
  50.4300022  75.0400019  39.1100025  49.8100042  76.7000055  37.6900029
  53.8800049  76.4500046  35.9600019  53.2000017  76.3500023  35.0200009
  55.1100016  76.8400049  35.9400010  55.5000019  77.0800018  36.8400025
  55.9500027  77.0900059  34.7500014  55.5500031  77.6600027  33.9100027
  57.2700024  77.7100039  35.2400017  58.0200005  77.6300049  34.4500017
  57.5100040  77.0300055  36.0600019  57.2200012  79.1600037  35.7600021
  56.3500023  79.1700029  36.4300013  58.4500027  79.4900036  36.5400028
  59.2700005  78.8800049  36.1800027  58.6500025  80.5500031  36.4300013
  58.2900047  79.3400049  37.6100016  57.1600008  80.2000046  34.6500015
  58.1400013  80.2800083  34.1800022  56.4800024  79.8500061  33.8700008
  56.7800045  81.1500072  35.0300026  56.3700008  75.6600046  34.1600013
  56.3200045  75.6300020  32.9200006  56.5200043  74.6300030  34.9400020
  56.2400007  74.7000027  35.9200025  56.8700027  73.3100033  34.4000006
  57.5200033  73.3700037  33.5300016  57.7000046  72.5400019  35.4600024
  57.3100042  72.6000023  36.4700007  58.0900049  71.1000013  35.0500011
  58.7600040  71.0200024  34.2000008  58.6200047  70.5300045  35.8100009
  57.2300005  70.4600048  34.8300028  59.0500021  73.2200050  35.5800009
  58.9100027  74.1900015  36.0400009  59.6200037  72.6300049  36.2900019
  59.5800018  73.3000040  34.6300006  55.6700039  72.5400019  33.9600015
  55.6300020  71.8600035  32.8900027  54.5400047  72.6500034  34.7500014
  54.7000027  73.0200052  35.6700015  53.1400013  72.4100018  34.1800022
  53.1400013  71.3500023  33.9400005  52.0800018  72.6700020  35.3100014
  51.0800028  72.8600025  34.9100018  52.3400021  73.6100054  35.7700014
  51.8900013  71.5200043  36.3700008  52.8400040  71.3400030  36.8600011
  51.6300011  70.5800056  35.8900023  50.8600044  71.8400049  37.4700022
  49.9000025  72.0100021  36.9900012  51.1800003  72.7800035  37.9200029
  50.8100033  70.7500029  38.4700012  51.7500019  70.7300043  39.0200019
  50.7600021  69.7700024  37.9900026  49.6700001  70.9500027  39.4000030
  48.8100004  70.9500027  38.8600016  49.6200037  70.1100016  39.9400020
  49.7100019  71.7400026  40.0300026  52.7700043  73.2300043  32.9600024
  51.7600012  72.8500032  32.3600006  53.5000038  74.3000031  32.5400019
  54.2700005  74.5000029  33.1700015  53.1400013  75.0800037  31.3900018
  52.2200012  74.6500015  31.0000014  52.8500032  76.5600014  31.6700006
  53.6900043  77.1500015  32.0200014  52.0900011  76.5100050  32.4600005
  52.2800016  77.3500013  30.4900026  52.7500010  78.5500050  29.9200010
  51.8100023  78.8900042  29.0300012  51.8900013  79.8000050  28.4500003
  50.7900047  78.0200052  28.9400005  50.0400019  78.0400038  28.2700014
  51.0300016  77.1100044  29.9700022  50.3600025  76.3000059  30.2200007
  54.1200018  74.8400021  30.2400017  53.6600018  74.9200058  29.0800023
  55.3800011  74.5800018  30.6100011  55.6300020  74.7900057  31.5600014
  56.4400005  74.3900013  29.6500015  55.9800005  74.4500017  28.6700010
  57.4700022  75.5600023  29.6900010  58.3300018  75.3900051  29.0600014
  57.8400040  75.6000042  30.7100010  56.7400026  76.8500042  29.3800020
  57.4200010  77.6900053  29.5000005  55.9100008  77.0400047  30.0700021
  56.3700008  76.9800043  27.9000020  55.9800005  76.0700035  27.4500012
  57.2400045  77.2300053  27.2900009  55.3200006  78.0100060  27.6800013
  54.4800043  77.7600050  28.3100009  54.9400043  77.8900051  26.6700006
  55.7200003  79.4000053  27.9400015  56.4300013  79.7500038  27.3000002
  54.9000025  79.9800014  27.8300023  56.1200047  79.3700027  28.8700008
  57.1600008  72.9700041  29.8500013  58.4200048  72.8100014  29.6300006
  56.4100027  71.8300056  30.1200008  54.9800014  71.6700029  29.9000025
  54.4700003  72.2400045  29.1100025  54.5000029  72.1000051  30.7800007
  54.8100042  70.1600027  29.6800017  55.1300049  69.9900055  28.6400008
  53.7800026  69.8500013  29.8000026  55.7500029  69.5400047  30.6200004
  55.9000015  68.4900045  30.4300022  55.2800035  69.7200012  31.5800023
  56.9900036  70.4800034  30.3900003  57.6100016  70.6200027  31.2700009
  57.9100037  69.8500013  29.3500018  58.6000013  68.9200020  29.7500014
  58.0500031  70.2200031  28.1200004  57.4200010  70.9300041  27.7700019
  59.1900015  69.8800039  27.2000003  59.2200041  68.8000011  27.2800016
  58.7900019  70.3300047  25.7900023  59.6500015  70.3200054  25.1200008
  58.4900045  71.3700056  25.9500003  57.5600004  69.5800018  25.3100014
  56.7300034  69.8100042  25.9800005  57.8300047  68.5200024  25.3500009
  57.2400045  69.9700022  23.8300014  58.1500006  69.7000027  23.2800007
  57.1200037  71.0400057  23.7000012  56.2100029  68.9700031  23.2200003
  55.3300047  69.0400028  23.8700008  56.5200043  67.9300022  23.2500005
  55.7800007  69.2000055  21.8099999  55.5500031  70.1800013  21.8700004
  56.5600014  68.9300013  21.2400007  54.9300003  68.6900043  21.6000009
  60.5700016  70.4200029  27.7400017  61.5900040  69.7900057  27.7200007
  60.6200027  71.6700029  28.2400012  59.7400045  72.1500015  28.2700014
  61.8800020  72.4300051  28.5800004  62.4200010  72.5900030  27.6500010
  61.4400005  73.8400030  29.0500021  62.2900009  74.3100023  29.5400023
  61.0900021  74.3800020  28.1700015  60.7400036  73.7700033  29.8800015
  62.8300047  71.6200018  29.6000004  62.2800016  70.9700012  30.5300021
  64.1500044  71.8300056  29.6000004  64.5000029  72.5100040  28.9500022
  65.1200008  71.6500044  30.7100010  64.9200010  70.7300043  31.2700009
  66.5400028  71.5300035  30.0800014  67.2800016  71.4900017  30.8800006
  66.7300034  70.2600050  29.2500019  67.0600033  69.4800043  29.9500012
  65.8400011  70.0900030  28.6500025  67.6300049  70.3600025  28.6500025
  66.9200039  72.6800013  29.4200015  67.6500034  72.3500013  28.8900018
  65.0700045  72.7500057  31.7300010  64.4800043  73.8200045  31.4900017
  65.5800009  72.5900030  32.9900026  65.8300018  71.6500044  33.2100010
  65.5800009  73.7300014  33.9500022  64.5500040  74.0600014  33.9300013
  65.9000015  73.2100058  35.3800011  66.9200039  72.8500032  35.5000019
  65.3600025  72.2900057  35.5700016  65.8300018  74.2200041  36.5200019
  64.8000050  74.5500040  36.5900016  66.4300013  75.0800037  36.2300014
  66.3200045  73.7600040  37.8800011  67.3400021  73.4800053  37.6500010
  65.7500029  72.8900051  38.2000017  66.2000036  74.9500036  38.8800025
  65.2900028  74.8800039  39.4800019  66.0800028  75.9100056  38.3900023
  67.3900032  75.0100040  39.7500014  67.6800013  74.2200041  40.2900028
  68.2500029  75.2700043  39.2900014  67.3000050  75.7900047  40.3900003
  66.3700008  74.9500036  33.3900023  65.9800053  76.1000013  33.6500025
  67.4700022  74.6700048  32.6900005  67.7700043  73.7200022  32.7900004
  68.2600021  75.6900024  32.0100021  68.7800026  76.3200045  32.7300024
  69.2900038  74.9700022  31.1000013  68.6800051  74.5700026  30.2800012
  69.8000050  74.1600037  31.6400003  70.2500010  75.9600019  30.4300022
  69.7300053  76.6600037  29.7900009  70.9000015  75.3800058  29.7900009
  71.0100031  76.8200016  31.4400005  71.6700029  77.8400040  31.0700011
  71.1600018  76.4100027  32.6100016  67.4300051  76.6000032  31.1300015
  67.7500010  77.7600050  31.1100006  66.2900019  76.1500025  30.5100012
  65.8400011  75.2800035  30.7300019  65.3800011  77.1100044  29.8300004
  66.0500050  77.7400017  29.2300010  64.4900036  76.3400030  28.8700008
  63.9400053  77.1200037  28.3400011  63.8500023  75.6400013  29.4000006
  65.2200031  75.6700039  27.7000022  65.7900047  74.8700047  28.1800008
  65.7400036  76.4100027  27.0800018  64.2900038  74.8600054  26.6900015
  64.4200039  73.6900043  26.5100002  63.3900023  75.5200052  25.9600019
  63.5200024  76.5300035  25.9800005  62.9100037  74.9100018  25.3100014
  64.5200014  77.9500055  30.7100010  63.8400030  78.8300037  30.1900005
  64.3900013  77.7100039  32.0200014  65.0500011  77.0200014  32.3800015
  63.4100008  78.4300041  32.9700017  62.8900051  79.2400026  32.4400020
  62.4600029  77.3500013  33.5100007  61.8200016  77.8400040  34.2500019
  63.0600023  76.5400028  33.9400005  61.6600037  76.6700029  32.3700023
  62.3900032  76.2500048  31.6700006  60.9100008  75.4400015  32.8700018
  60.4000044  74.9400043  32.0400023  61.6100025  74.7500038  33.3300018
  60.0800037  75.7900047  33.5000014  60.7300043  77.6100016  31.6600013
  61.3400030  78.1800032  30.9800005  60.0200033  76.9500017  31.1500025
  60.1300049  78.2400036  32.3400021  64.0100050  79.1700029  34.1400027
  63.3900023  79.9600029  34.7900009  65.2800035  78.9700031  34.4500017
  65.7000017  78.1400061  34.0500021  65.9500027  79.6000051  35.6100011
  65.3100014  79.5200014  36.4900017  67.3000050  78.9300060  35.7600021
  67.2600031  77.8500032  35.6600022  67.6200008  79.2100048  36.7600012
  68.3800030  79.4800043  34.7900009  68.6100054  80.5300045  34.9800014
  68.0100012  79.3700027  33.7800026  69.6600056  78.7500048  35.0200009
  69.5700026  77.7100039  34.7200012  69.8800039  78.8000059  36.0800028
  70.7900047  79.3300056  34.1900015  70.9900045  80.3299999  34.5700026
  70.5400038  79.3200016  33.1400013  72.0000029  78.5400057  34.2900014
  72.1800041  78.3200026  35.2500010  71.9800043  77.7200031  33.6900020
  72.7700043  79.0700054  33.8800025  66.0200024  81.1100006  35.5300021
  65.8900023  81.7199993  36.5700006  66.0400009  81.6800022  34.3400025
  66.1200047  81.0599995  33.5400009  66.0700035  83.1700039  34.1600013
  66.9500017  83.5500050  34.6800017  66.2500048  83.4500027  32.6600027
  67.2800016  83.2100010  32.4000025  65.5200052  82.9200077  32.0600009
  66.2400055  84.5100021  32.4200010  64.7200012  83.8800049  34.5900011
  64.7500038  84.9500084  35.2000022  63.5800028  83.1500053  34.2700005
  63.6900043  82.2800064  33.7700009  62.1900034  83.6100006  34.7400022
  61.9900036  84.6100044  34.3600011  61.1900043  82.6600075  34.1900015
  61.4800024  81.6200066  34.3300009  59.7700024  82.8999996  34.6800017
  58.9800024  82.5000000  34.0500021  59.7100019  82.5500011  35.7100010
  59.5200014  83.9700031  34.7100019  61.2200022  82.8299999  32.6400018
  60.3800011  82.3099995  32.1800017  61.0700035  83.8700008  32.3400021
  62.1500015  82.5200081  32.1700025  62.1400023  83.3900070  36.2700009
  61.5800047  84.2600060  36.9800019  62.7600050  82.2700024  36.8400025
  63.2700014  81.6700077  36.2100029  62.7400017  82.0499992  38.3300018
  61.7100048  82.1100044  38.6900020  63.3100033  80.6599998  38.7200022
  63.4900045  80.6900024  39.7900009  64.2400026  80.4400063  38.2000017
  62.3500013  79.4700050  38.4700012  62.8100014  78.7400055  39.1200018
  62.4100018  79.2600060  37.3900008  60.6100035  79.6100044  39.0400028
  60.8300018  80.0699997  40.7400036  61.5700006  79.4200039  41.2000036
  61.3300037  81.0300064  40.7200003  59.8600006  80.1100063  41.2500000
  63.5900021  83.1400013  39.0000010  63.2800007  83.4200001  40.1400042
  64.6200037  83.7400055  38.3500028  64.8000050  83.4500027  37.4000025
  65.3900051  84.8099995  39.0500021  65.5500031  84.5500088  40.0900030
  66.7000055  85.0000000  38.2500029  66.5200043  85.4400063  37.2600007
  67.1600056  84.0100002  38.1500030  67.8100014  85.7600021  38.9400029
  68.2700014  86.8300056  38.4500027  68.1400013  85.2200031  40.0200033
  64.7500038  86.2300014  38.9300013  64.8000050  87.0100021  39.8900008
  63.9700031  86.4600086  37.8800011  63.8700008  85.7400036  37.1700025
  63.0300045  87.6400089  37.6700020  63.6200047  88.5300064  37.8900027
  62.5900030  87.6400089  36.1900020  61.8600035  86.8300056  36.0700011
  63.4800053  87.3900032  35.6100011  62.1000051  89.0400028  35.7500029
  61.6200018  89.1100025  34.6000028  62.3200035  90.0800037  36.4500022
  61.8000031  87.5699997  38.6000013  61.3700008  88.5200024  39.2500019
  61.2200022  86.3899994  38.7700009  61.5000010  85.6400013  38.1600022
  60.2000046  86.1000061  39.8500013  59.3400049  86.7600060  39.7400022
  59.7600031  84.7399998  39.6900010  60.5900049  84.0500069  39.8300028
  59.3800020  84.7100067  38.6800027  58.6300039  84.2700005  40.5700016
  58.8100004  83.8600063  41.9300032  59.8100042  83.7100029  42.3100042
  57.7100039  83.6700058  42.8200006  57.8200006  83.4700012  43.8700008
  56.4000034  83.7600040  42.3000002  55.5000019  83.5700035  42.8400040
  56.1900043  84.0200043  40.9400034  55.2000046  84.1400051  40.5400038
  57.3300028  84.3900013  40.1800013  57.2100019  84.6900082  39.1600013
  60.8100033  86.3300037  41.2800026  60.0400019  86.8000031  42.1700001
  62.0900011  86.1400032  41.5000010  62.6700020  85.6200027  40.8599997
  62.6400042  86.2900066  42.8700018  61.8500042  86.0000038  43.5600042
  63.8800049  85.3999996  42.8600025  64.5000029  85.5700016  41.9800043
  64.4800043  85.5200005  43.7600040  63.5800028  84.3600082  42.7900028
  63.0000019  87.7400017  43.3000040  62.9700041  88.1300068  44.5000029
  63.2200050  88.5800076  42.2600031  63.2000017  88.1800079  41.3400030
  63.2600021  90.0000000  42.3300028  63.9400053  90.2500057  43.1400013
  63.8300037  90.5600071  41.0100031  63.8000011  91.6499996  40.9200001
  64.8300028  90.1500034  40.8599997  63.1500053  90.2400017  40.2100039
  61.8300009  90.5100060  42.6700020  61.6400051  91.3300037  43.5900021
  60.7900047  90.0600052  41.9500017  61.0200024  89.5100021  41.1400032
  59.3800020  90.5500031  42.1900034  59.3200016  91.6300011  42.0500040
  58.3900023  89.9700069  41.1000013  57.4300051  89.8100090  41.6000032
  58.7300014  88.9900017  40.7700014  58.1800032  90.8300018  39.8600030
  58.6900043  90.3400040  38.6800027  59.1500044  89.3600082  38.6000013
  58.6300039  91.0800076  37.5100017  59.0000010  90.6700039  36.5800023
  58.1800032  92.4100018  37.6000023  58.2400036  92.9700089  36.6900015
  57.6500034  92.9500008  38.7800026  57.5400019  94.0300083  38.8500023
  57.5700045  92.0800018  39.9000025  57.4600029  92.5699997  40.8500004
  58.8500023  90.2900028  43.5800028  58.1800032  91.1600018  44.1500044
  59.2600012  89.2000008  44.2100000  59.8200035  88.5100079  43.7400007
  58.8500023  88.8800049  45.6000042  57.8800011  89.3400002  45.8300018
  58.7300014  87.3500061  45.9000015  58.3500051  87.2300053  46.9200039
  57.7500010  86.6300011  44.9900007  56.7500019  87.0800018  44.9600029
  58.1500006  86.6400051  43.9800024  57.6400042  85.5800056  45.2700043
  60.0600052  86.6000080  45.8100033  60.3000021  86.5799999  44.7500038
  60.8700037  87.1900082  46.2400007  60.0300026  85.5600071  46.1500025
  59.7600031  89.5600033  46.6400003  59.6200037  89.3600082  47.8400040
  60.6500006  90.4800034  46.3000011  60.7700014  90.6900024  45.3200006
  61.5000010  91.3500023  47.2100019  60.9900045  91.3900089  48.1900024
  62.9300022  90.7299995  47.3200035  63.5800028  91.4500046  47.8000021
  63.3300018  90.4500008  46.3400030  62.9400015  89.4600010  48.1800032
  62.4800014  88.6100006  47.6700020  62.3100042  89.5700073  49.0700006
  64.3600035  89.0400028  48.5800028  64.9300051  88.0800056  47.9300022
  64.9800014  89.4600010  49.5700026  61.5800047  92.8200054  46.8500042
  61.3900042  93.6400032  47.7000046  61.9200039  93.1800079  45.5700016
  61.9200039  92.5100040  44.8300028  62.5400019  94.5200062  45.1900005
  63.1600046  94.8500061  46.0200024  63.4800053  94.3900013  43.9900017
  63.7800026  95.3900051  43.6900043  63.0600023  93.8800049  43.1300020
  64.7500038  93.7500000  44.4800043  64.4600010  92.8000069  44.9300003
  65.2900028  94.2000008  45.3000021  65.7800055  93.4600067  43.3700037
  65.2700043  93.1500053  42.4600029  66.4600039  92.7100086  43.7900019
  66.5100050  94.7800064  43.1800032  66.8600035  95.0500011  44.1800022
  65.8400011  95.5000019  42.7100039  67.6200008  94.6300030  42.2399998
  68.2500029  95.4100037  42.1099997  68.1700039  93.8300037  42.5500011
  67.2500038  94.2800045  41.3700008  61.4400005  95.6400013  44.9400043
  61.8000031  96.7900085  44.6400023  60.2300024  95.3500080  45.3600025
  60.0800037  94.3900013  45.6300020  59.1000032  96.3500023  45.4300022
  59.3500042  97.3700047  45.1400042  57.9400015  95.8100033  44.5700026
  57.2100019  96.6200066  44.5800018  57.4100018  94.9400043  44.9700022
  58.3800030  95.4500008  42.8400040  58.5500050  96.3900089  46.8500042
  57.6200008  97.1300030  47.0900011  59.2500019  95.7400036  47.9000044
  60.0500011  95.2000046  47.6100016  58.7300014  95.8300018  49.2600012
  57.6400042  95.8800030  49.1600037  59.3000031  94.5700073  50.0000000
  58.9800024  94.7200012  51.0300016  60.3900051  94.6000004  50.0000000
  58.5900021  93.0000019  49.4600010  59.1400051  97.1500015  49.9500036
  58.4000015  97.6000023  50.8200026  60.2600050  97.7700043  49.6100044
  60.7200050  97.4300003  48.7800026  60.7800007  98.9700031  50.3400040
  60.1300049  99.2100048  51.2000036  62.1900034  98.6200047  50.8700037
  62.4000025  99.5900059  51.3100004  62.9200029  98.5500050  50.0600004
  62.3100042  97.5300026  51.9400024  63.3500051  97.5600052  52.2400045
  62.1400023  96.5900040  51.4100027  61.3200045  97.7800083  53.1000042
  61.5500021  97.0300007  53.8500023  60.3300047  97.6300049  52.6700020
  61.5200043  99.1100025  53.8300037  61.3000011  99.9500084  53.1700039
  62.5700045  99.1900063  54.1400003  60.7300043  99.2300034  55.1200008
  61.0800028  98.5100079  55.7300043  60.9500027 100.1100063  55.5700016
  59.7200012  99.2900085  55.0100040  60.7500029 100.2700043  49.5100021
  60.9600019 101.3900089  49.9800014  60.4500008 100.0800037  48.2100010
  60.0900030  99.1800022  47.9200029  60.4700041 101.0700035  47.2200012
  61.4600039 101.5200043  47.1500015  60.1900005 100.3800011  45.8800030
  60.8300018  99.5300007  45.6599998  59.2000008  99.9400043  45.8700037
  60.2400017 101.0600090  45.0300026  59.4100046 102.1400070  47.3900032
  58.3000040 101.7700005  47.7700043  59.6800041 103.5000038  47.2200012
  60.5900049 103.7500095  46.8800020  58.7000036 104.5200062  47.4400043
  58.0400038 104.2300034  48.2600021  59.4900036 105.8600044  47.7800035
  59.9900007 105.7500076  48.7400007  58.7700033 106.6700077  47.8700018
  60.5200052 106.2500095  46.7200041  61.7900038 106.1100006  46.9200039
  60.0900030 106.6800022  45.6300020  57.7700043 104.8200035  46.2700033
  56.8800020 105.7000065  46.4200020  57.9800034 104.2600060  45.0600004
  58.8000011 103.6800003  45.0000000  57.3300028 104.5900059  43.8000011
  56.4400005 105.1900005  43.9800024  58.1800032 105.5100060  42.9700041
  58.3900023 106.4200020  43.5300016  57.6400042 105.8100033  42.0700026
  59.5600033 104.9500084  42.5800037  60.1900005 105.7000065  41.8600035
  59.9300051 103.7400055  42.8800011  56.8900013 103.3500004  42.9400015
  56.3300037 103.5500050  41.8600035  57.1100044 102.1100044  43.4899998
  57.4700022 102.0800018  44.4500017  56.7100048 100.8800030  42.8500032
  56.7800045 101.0600090  41.7700005  57.7400017  99.8300076  43.1400013
  57.3300028  98.8800049  42.8000021  57.8700018  99.7100067  44.2200041
  59.0500021 100.1800060  42.4700022  59.5900011 101.0300064  42.8700018
  58.9700031 100.4300022  41.4100027  60.0300026  98.9100075  42.4200010
  59.6900034  98.2200050  41.6499996  59.9000025  98.5500050  43.4400034
  61.5000010  99.4000053  42.0300007  61.8100023 100.2500057  42.6400042
  61.4500046  99.6500015  40.9700012  62.4600029  98.2900047  42.2100019
  62.4000025  97.5700092  41.4900017  63.3700037  98.7300014  42.1500015
  62.3400021  97.8000069  43.0800009  55.2200031 100.5900002  43.0100012
  54.8200035  99.3800068  43.1200027  54.4100046 101.6100025  42.8900003
  54.7200012 102.5600052  42.7700043  52.9600048 101.4700031  42.9000044
  52.7100039 100.9800053  43.8400030  52.4400043 102.9100037  43.1400013
  51.3500023 102.9300022  43.1400013  52.5800037 103.5200024  42.2500038
  52.8900003 103.6000061  44.4300032  53.9600039 103.5700035  44.7000027
  52.2500038 103.1400013  45.1800013  52.4900007 105.0700092  44.3700027
  53.3900023 105.9200096  44.5300007  51.3100004 105.3700066  44.2900038
  52.3200035 100.6900024  41.7400026  51.1900043 100.2500057  41.8400002
  52.9600048 100.5000019  40.6500006  53.8400030 101.0000038  40.5400038
  52.6200008  99.6300030  39.5500016  51.5400028  99.5300007  39.4900012
  52.8700018 100.3400040  38.1700015  52.6900005  99.6000004  37.4000025
  51.9900036 101.6100025  38.0300021  52.3600006 102.4000072  38.6700010
  52.1100044 102.0000076  37.0200014  50.9200001 101.4900017  38.2000017
  54.2200041 100.7900047  38.0600023  54.3100023 101.1000061  37.1500015
  53.2000017  98.2100010  39.5900011  52.8800011  97.5100040  38.6700010
  54.0300035  97.8100014  40.5600023  54.2500019  98.5000038  41.2700033
  54.7000027  96.5200043  40.5000019  55.1800013  96.3900089  39.5300007
  55.8600044  96.5500069  41.5400028  55.3900003  97.0000076  42.4100018
  56.5800047  97.3100090  41.2800026  56.6500044  94.9300003  41.9800043
  53.8100004  95.3400040  40.7000017  53.9200020  94.3600082  39.9500012
  53.0400038  95.2300072  41.7799997  53.0400038  95.9400082  42.4900007
  52.3600006  93.9200020  42.0000029  53.0300045  93.1000042  41.7400026
  51.8000031  93.7600040  43.4200001  51.5000010  92.7300072  43.5800028
  50.9500027  94.4099998  43.6300039  52.8400040  94.0700054  44.4800043
  54.0300035  93.3200073  44.5600033  54.1900015  92.5600052  43.8100004
  54.9400043  93.6000061  45.5500031  55.8600044  93.0300045  45.5000019
  54.7200012  94.6500015  46.4500046  55.4200029  94.8500061  47.2500038
  53.5700035  95.4100037  46.4000034  53.3400011  96.2300014  47.0500040
  52.5800037  95.0900078  45.4100037  51.6800022  95.6900024  45.3600025
  51.2100029  93.8000011  41.0000038  50.8400011  92.7000046  40.6400013
  50.6000042  94.9300003  40.4800034  50.8900023  95.8000088  40.9200001
  49.4200039  94.8800087  39.6000028  48.9300013  93.9400005  39.8400021
  48.4700012  95.9500027  40.1100016  48.2200003  95.9500027  41.1700010
  48.6800003  96.9800091  39.8500013  47.5500011  95.6500053  39.6000028
  49.7100019  94.9700069  38.0500007  48.9800024  94.4200039  37.1700025
  50.7900047  95.6800079  37.6800013  51.4200020  96.0200024  38.3900023
  51.1400032  95.8700085  36.2900019  50.3800011  95.3700066  35.6900024
  51.0400009  97.2700024  35.7400012  51.4200020  97.2800064  34.7200012
  51.7800045  97.7900028  36.3500023  49.7000027  97.9400063  35.7700014
  50.0000000  98.9900017  35.7200027  49.2100000  97.8000069  36.7400026
  48.6700010  97.5400066  34.6700025  48.8800001  96.6100025  33.8500023
  47.6200008  98.1900024  34.6800017  52.4500036  95.1900005  35.9700012
  52.5400019  94.2300034  35.2100015  53.6100006  95.6200027  36.5300012
  53.5600042  96.3600063  37.2000027  54.8600006  95.0700092  36.0800028
  55.0700045  95.2600002  35.0200009  56.0000038  95.7200050  36.8100023
  56.9300032  95.3200054  36.3900018  55.9700012  95.6300068  37.9000020
  56.1200047  97.2200012  36.4400029  56.9800043  97.6900005  36.9200015
  55.2200031  97.7600002  36.7100024  56.3600016  97.3100090  34.9500012
  57.4700022  96.9900036  34.4800019  55.4700041  97.8200054  34.2400026
  55.0300026  93.6100006  36.2500024  55.2700043  92.8900051  35.3200006
  54.7300005  93.0700016  37.4400020  54.3600035  93.6800003  38.1700015
  54.6600008  91.6600037  37.6500010  54.3400049  91.6600037  38.6900020
  55.6500006  91.2100029  37.5400019  53.6400032  90.9100056  36.7500019
  53.7500048  89.6800041  36.6000009  52.6400042  91.6100025  36.1400008
  52.5400019  92.6100063  36.1600018  51.7300034  91.0000038  35.1700020
  51.5900040  89.9600029  35.4900026  50.4300022  91.7700005  35.4000020
  50.4100037  92.8500080  35.2600026  50.2100039  91.7300034  36.4700007
  49.1700029  91.2200069  34.6400023  49.0600014  90.1800060  34.9400020
  49.3400002  91.2200069  33.5700011  47.8800011  92.0200062  34.9000025
  47.8500032  92.2200012  35.9600019  47.0300007  91.4200020  34.5700026
  48.0100012  93.3700085  34.2300010  47.4700022  93.2800007  33.2900023
  49.0700006  93.5600090  34.0400004  47.3600006  94.5300007  34.8200011
  46.3600016  94.6800041  34.8100019  47.5800037  94.5800018  35.8000016
  47.8299999  95.3600025  34.4800019  52.4500036  90.9300041  33.7600017
  52.0600033  90.0699997  32.9900026  53.4500027  91.7500019  33.4300017
  53.7000036  92.4700069  34.0900016  54.3100023  91.5799999  32.2200012
  53.6500025  91.5200043  31.3600016  55.1300049  92.9200077  32.1400023
  55.6700039  92.9300022  31.1900020  55.7800007  92.9800034  33.0100012
  54.2200041  94.1700077  31.9800019  53.6800003  94.3900013  32.9100013
  53.4500027  94.0799999  31.2200022  55.0300026  95.4100037  31.6700006
  55.5800009  95.3800011  30.7300019  55.8200026  95.5400085  32.4300027
  54.0000010  96.5400028  31.5900016  53.2300043  96.1500072  30.9200025
  54.4200039  97.4900055  31.2700009  53.3300018  96.8300056  32.8400016
  53.9800024  96.7900085  33.6200023  53.0600023  97.8000069  32.8200006
  52.5700045  96.2000084  33.0600023  55.2000046  90.3299999  32.2400022
  55.4400015  89.6500015  31.2300014  55.4900026  89.8800087  33.4900022
  55.6100035  90.6599998  34.1300011  56.1000013  88.5500050  33.7300014
  56.8900013  88.4800053  32.9800010  56.7300034  88.4400082  35.0900006
  55.9200048  88.5900021  35.8200026  57.3500013  89.3300056  35.2500010
  57.5700045  87.2100067  35.2400017  56.9700050  86.3899994  34.8200011
  57.9700041  86.8800068  36.7200017  57.1100044  86.5400028  37.2900009
  58.7100029  86.0800076  36.7800021  58.4100008  87.8200054  37.0600009
  58.8500023  87.3400021  34.3800020  58.5200024  87.2500038  33.3400011
  59.3600035  88.3000088  34.5000005  59.5400047  86.5400028  34.6100020
  55.0300026  87.4800014  33.4400010  55.3300047  86.4700031  32.9200006
  53.7200022  87.7500057  33.7100005  53.5900021  88.6200047  34.2100024
  52.7100039  86.6800022  33.5900021  53.0500031  85.7400036  34.0100026
  51.4300013  86.9099998  34.4500017  51.0400009  87.9200077  34.3200016
  50.2400017  86.0000038  34.1100025  50.5300045  84.9600029  34.2100024
  49.3800020  86.2500000  34.7400022  49.8500013  86.2200069  33.1300020
  51.7800045  86.7200089  35.9500027  50.8700037  86.7800045  36.5600014
  52.2400045  85.7500076  36.1600018  52.2900009  87.6400089  36.2400007
  52.2600031  86.5000057  32.1100020  52.1800041  85.3800011  31.6200018
  52.2100019  87.5600052  31.3500023  52.3700047  88.4400082  31.8200016
  52.1200037  87.5000000  29.8900008  51.3800001  86.7700005  29.6000004
  51.6200018  88.8700008  29.4000006  51.4500046  88.8300037  28.3300018
  50.7000017  89.1100025  29.9200010  52.4300003  89.5500088  29.6800017
  53.3200026  87.0300007  29.1600013  53.1600046  86.4700031  28.1100011
  54.5400047  87.3600006  29.6500015  54.6300030  88.0400085  30.4000020
  55.7600021  86.7400074  29.0800023  55.8700037  87.0100021  28.0300021
  56.9900036  87.2700024  29.8000026  57.8400040  86.6200066  29.6300006
  57.2600031  88.2100010  29.3300009  56.8800020  87.2600079  30.8900023
  55.7600021  85.2200031  29.1700006  56.1900043  84.6100044  28.2200003
  55.1400042  84.6100044  30.2500010  54.9100018  85.1000023  31.1000013
  54.9400043  83.1300068  30.2700019  55.8500004  82.5800037  30.0100017
  54.4000006  82.8000069  31.6700006  53.9600039  81.8100071  31.5600014
  53.7700033  83.5400009  32.1400023  55.5200005  82.6500034  32.4900007
  55.1400042  82.3600006  33.3200026  53.8900042  82.7200031  29.2300010
  54.1300011  81.6600037  28.6300015  52.8100014  83.4800053  29.1200018
  52.4300003  84.0900040  29.8300004  51.7800045  83.1900024  27.9900002
  51.5300035  82.1200085  28.0500007  50.5200005  84.1600037  28.3100009
  50.0500011  84.1800022  27.3300004  50.8500004  85.1900005  28.4100008
  49.5600033  83.8000011  29.4800019  49.0200043  84.7100067  29.8000026
  50.1400042  83.5000038  30.3600025  48.6200047  82.7100086  29.0200019
  48.9300013  81.5400028  29.0700006  47.5900030  83.1800079  28.3700013
  47.4100018  84.1600037  28.5500002  46.8100023  82.5900078  28.1100011
  52.3000002  83.3800030  26.6000009  51.7000008  82.9500008  25.6200004
  53.5200024  83.9700031  26.4500022  53.9600039  84.3300056  27.2800016
  53.9200020  84.4600010  25.1600003  53.1000042  84.9100018  24.6100020
  54.9600029  85.4900074  25.3700018  55.3100014  85.9700012  24.4500017
  54.5500040  86.2700081  26.0000014  55.8700037  84.9900055  25.6900001
  54.4400024  83.2999992  24.2500019  54.8800039  82.3099995  24.7800016
  54.3500042  83.5300064  22.9900002  53.8900042  84.3900013  22.7100015
  54.7000027  82.5500011  21.9500017  55.0500011  81.6200066  22.3900008
  53.3900023  82.0499992  21.2400007  52.6000023  81.7199993  21.9100022
  53.0500031  82.8400040  20.5700016  53.5100031  81.1100006  20.7100010
  55.8300018  83.0900002  21.0200000  56.9600010  82.6100063  21.0200000
  55.5300045  83.9000034  20.1100016  10.5000007  79.6400023  44.6200037
  11.2000000  84.2000008  45.2300024  14.0000010  81.0700035  43.5400009
   8.7500006  81.0200024  47.1000004  14.7000003  77.8500032  42.1099997
  11.9200003  84.9100018  41.9700003  11.6700006  77.7600050  44.3100023
  12.3300004  84.9400043  47.1300030  15.6700003  81.0900021  41.9600010
  10.8600008  81.7600060  46.7100000  12.6800001  78.9100027  41.8400002
  13.5200012  83.8800049  43.1900024  10.6100011  83.1000042  47.2700024
  11.4400005  79.5200014  42.5699997  13.9500010  82.9200077  42.0700026
  10.1100004  79.3600035  46.0000038  11.7500007  85.2500057  44.3400002
  14.2500007  79.6100044  43.8300037   9.8500007  80.7800007  46.6700029
  13.9500010  78.7500048  42.5400019  12.3700011  84.6600056  43.0800009
  11.0900009  78.7700033  43.8600016  11.4700007  84.2199993  46.5700006
  14.7000003  81.6700077  42.5200033  12.1700001  81.3600063  46.3000011
  12.6400006  78.4700060  40.4200029  14.4800007  84.0100002  44.3500042
   8.8400006  78.4400034  46.1400032   9.2200005  76.9500017  45.9700012
   7.6900005  78.7400055  45.1600027  10.1700008  79.8500061  41.6100025
   9.4000006  78.5800028  41.2300014   9.1500002  80.9300041  42.2200012
   9.7900003  82.2000027  42.8299999  10.6300008  83.1300068  48.8900042
  12.0400012  82.7700043  49.3900013  10.0200009  84.3800068  49.5100021
   8.6100006  84.8500061  49.0300035  15.6500006  79.4200039  44.5000029
  15.8700013  80.3600025  45.7300043  16.0700011  77.9900026  44.8100042
  10.5700004  86.3199997  44.1200018  10.4000008  87.5000000  45.1900005
   9.2000002  85.7800007  43.6800003  14.7000003  83.6600018  40.8500004
  15.9900010  84.3500042  41.3400030  14.9400008  82.7300072  39.5900011
  15.2200007  83.5200024  38.2800007   9.5800006  83.2700062  46.9300032
  11.7400002  80.4800034  43.0000019  13.0100012  82.6000023  41.6000032
  10.9500003  78.9500046  46.5600014  12.5400007  85.7400036  44.9300003
  13.5400009  79.3400049  44.6200037  12.9900002  82.0300007  46.5900040
  12.1800005  81.0900021  45.2400017  12.5200009  80.4400063  46.7900038
  13.4900010  78.9500046  39.9100018  11.6500008  78.6200047  39.9800014
  12.7700007  77.3900032  40.3500032  14.7900009  85.0300026  44.6300030
  15.4800010  83.6500072  44.0400028  14.1200006  83.3500004  45.1400042
   8.4600002  78.5800028  47.1700001   8.3900005  76.3100052  46.3000011
  10.0600004  76.8000031  46.6600037   9.4900006  76.5500021  44.9900007
   7.9500002  78.5500050  44.1100025   7.3300004  79.7800016  45.2500010
   6.8500006  78.0900049  45.4000044  10.5800009  80.3500080  40.7300043
   8.7500006  78.7300014  40.3600025   8.6700004  78.3900023  42.0200014
  10.0400007  77.7000046  41.1199999   8.5100001  80.3999996  42.9300022
   8.4700006  81.2100029  41.4000034   9.0200007  82.9699993  42.9600000
  10.6400001  82.5500011  42.2300005  10.1300001  81.9900036  43.8500023
  10.0100005  82.2600079  49.1000032  12.1000004  82.7400017  50.4800034
  12.7600002  83.5500050  49.1100025  12.3600006  81.8600082  48.8500023
  10.7900000  85.1500034  49.4700003   9.9600005  84.1900063  50.5900002
   8.4900004  85.9300041  49.2000008   7.7200001  84.3300056  49.4200039
   8.4300005  84.7200012  47.9500008  16.3700008  79.6800041  43.7200022
  15.0600004  80.2500057  46.4600039  15.7700002  81.4200020  45.4700041
  16.8100011  80.2400017  46.2800026  16.2000012  77.3900032  43.8900042
  15.3900003  77.4100018  45.4500008  17.0800006  78.1200027  45.1900005
  10.7900000  86.8600082  43.2000017  10.0200009  88.4600067  44.8400021
  11.3900006  87.7500057  45.5800009   9.7800004  87.1700001  46.0300016
   8.5300004  86.6100025  43.4100008   8.6700004  85.3500080  44.5200014
   9.1700006  85.1100063  42.8100014  14.0100002  84.4600010  40.5600023
  16.7400002  83.6200047  41.6400003  15.9000003  84.9600029  42.2300005
  16.3700008  85.0800037  40.6100035  14.0200007  82.1500015  39.3900013
  15.6900012  81.9600010  39.7600007  16.0900009  84.1800022  38.3900023
  14.3700004  84.1700077  38.0700016  15.3500009  82.8600025  37.4200010
