
  111  0.0000000e+00
 102.2300000  54.1300000  14.6400000 107.6000000  54.9400000  13.5100000
 104.4100000  55.8500000  17.1600000 104.5200000  53.7700000  12.9200000
 101.7500000  57.1300000  18.9700000 107.2600000  53.2100000  15.9400000
 100.5600000  55.5300000  15.5200000 106.8700000  57.1300000  13.8800000
 105.0500000  56.5800000  19.2400000 104.5400000  56.0000000  12.3700000
 101.5300000  54.9600000  18.2000000 107.2900000  55.2400000  17.0000000
 106.0400000  55.8900000  12.0000000 101.7000000  53.9600000  17.0600000
 106.3200000  54.7600000  18.0400000 102.4000000  54.9100000  13.4200000
 108.3900000  54.8800000  14.6500000 103.1800000  56.7000000  17.0800000
 103.8900000  54.8000000  12.8300000 102.1400000  56.2900000  18.1700000
 107.5600000  54.3800000  15.8900000 101.3500000  54.5600000  15.6000000
 106.8800000  56.0700000  13.2300000 105.1400000  55.7900000  18.3100000
 103.9000000  57.3400000  12.3200000 100.7000000  54.5200000  19.3300000
 108.0600000  56.4600000  17.5600000 101.3400000  54.4000000  12.3900000
 101.5200000  52.9700000  11.9200000 101.2100000  55.2800000  11.1700000
 101.1300000  52.4500000  17.2400000  99.9400000  52.1100000  16.4500000
 102.2300000  51.4000000  16.9100000 103.4100000  51.3900000  17.8900000
 106.4200000  56.7400000  10.7800000 107.9000000  56.6700000  10.2900000
 105.4700000  56.3400000   9.5200000 105.6400000  54.8800000   8.9500000
 103.7000000  58.2500000  17.1600000 105.0300000  58.6200000  16.3800000
 102.5300000  59.2400000  16.8500000 109.6500000  53.9500000  14.3000000
 110.4900000  53.6600000  15.6100000 110.5400000  54.5100000  13.1800000
 106.9900000  54.2500000  19.3900000 105.9800000  53.7100000  20.4700000
 108.1500000  53.2200000  19.0300000 109.0300000  52.7200000  20.2400000
 106.2200000  54.8600000  11.6800000 102.7900000  53.8800000  16.9600000
 105.7900000  53.8900000  17.6200000 102.1500000  55.9600000  13.5900000
 108.8000000  55.8600000  14.9100000 102.7700000  56.5800000  16.0700000
 104.6200000  58.0300000  11.8700000 103.5700000  57.6700000  13.3100000
 103.0900000  57.3400000  11.5800000 101.2400000  53.8200000  19.9700000
  99.8000000  54.0500000  18.9300000 100.2500000  55.3800000  19.8400000
 107.9200000  57.2000000  16.7700000 109.1300000  56.2100000  17.5700000
 107.6700000  56.7800000  18.5400000 100.3500000  54.5200000  12.8400000
 102.3300000  52.8800000  11.1900000 100.5600000  52.5200000  11.6500000
 101.7000000  52.3200000  12.7900000 100.3900000  54.9200000  10.5300000
 102.0900000  55.1600000  10.5300000 101.0500000  56.2900000  11.5700000
 100.8700000  52.2900000  18.2900000  99.0900000  52.8000000  16.5700000
  99.5600000  51.1100000  16.6800000 100.0600000  51.9900000  15.3700000
 102.7300000  51.6500000  15.9600000 101.7300000  50.4300000  16.8900000
 103.8200000  52.4100000  17.9400000 104.1100000  50.6600000  17.4700000
 102.9400000  51.1100000  18.8400000 106.3800000  57.8000000  11.0700000
 108.5500000  57.2300000  10.9700000 108.0600000  57.1800000   9.3400000
 108.3200000  55.6600000  10.2200000 105.6600000  57.0400000   8.7100000
 104.4200000  56.5000000   9.7900000 105.0200000  54.8000000   8.0500000
 105.2400000  54.1000000   9.6100000 106.7200000  54.7400000   8.7900000
 103.9200000  58.4000000  18.2200000 105.2700000  59.6800000  16.4100000
 104.8900000  58.3900000  15.3200000 105.8700000  57.9900000  16.7100000
 103.0300000  60.2000000  16.6700000 101.8000000  59.2000000  17.6700000
 102.0700000  58.8400000  15.9400000 109.2300000  53.0400000  13.8500000
 111.3000000  52.9900000  15.2900000 109.9300000  53.1100000  16.3800000
 110.9500000  54.5500000  16.0600000 110.7000000  55.5800000  13.3400000
 109.9800000  54.6600000  12.2400000 111.5400000  54.1100000  13.0200000
 107.3700000  55.1600000  19.8800000 106.5600000  53.8100000  21.4000000
 105.7300000  52.6400000  20.4600000 105.0700000  54.2900000  20.5800000
 108.8500000  53.6800000  18.3200000 107.8600000  52.3000000  18.5300000
 109.4500000  53.5900000  20.7600000 109.7700000  51.9900000  19.9100000
 108.3900000  52.2600000  21.0000000
