%VERSION  VERSION_STAMP = V0001.000  DATE = 09/04/25  04:55:24                  
%FLAG TITLE                                                                     
%FORMAT(20a4)                                                                   
Results/Site2/HOLO/ENA/ENA-Site                                                 
%FLAG POINTERS                                                                  
%FORMAT(10I8)                                                                   
     111       7      63      48     141      69     207     177       0       0
     624       1      48      69     177       9      21      40       7       0
       0       0       0       0       0       0       0       0     111       0
       0
%FLAG ATOM_NAME                                                                 
%FORMAT(20a4)                                                                   
O   O1  O2  O3  O4  O5  O6  O7  O8  N   N1  N2  C   C1  C2  C3  C4  C5  C6  C7  
C8  C9  C10 C11 C12 C13 C14 C15 C16 C17 C18 C19 C20 C21 C22 C23 C24 C25 C26 C27 
C28 C29 C30 C31 C32 C33 C34 C35 H   H1  H2  H3  H4  H5  H6  H7  H8  H9  H10 H11 
H12 H13 H14 H15 H16 H17 H18 H19 H20 H21 H22 H23 H24 H25 H26 H27 H28 H29 H30 H31 
H32 H33 H34 H35 H36 H37 H38 H39 H40 H41 H42 H43 H44 H45 H46 H47 H48 H49 H50 H51 
H52 H53 H54 H55 H56 H57 H58 H59 H60 H61 H62 
%FLAG CHARGE                                                                    
%FORMAT(5E16.8)                                                                 
 -7.66976607E+00 -7.66976607E+00 -7.66976607E+00 -1.04371321E+01 -1.04371321E+01
 -1.04371321E+01 -9.71855393E+00 -9.71855393E+00 -9.71855393E+00 -8.53654621E+00
 -8.53654621E+00 -8.53654621E+00  1.22149544E+00  1.22149544E+00  1.22149544E+00
  1.66611956E+00  1.66611956E+00  1.66611956E+00  1.19374287E+01  1.19374287E+01
  1.19374287E+01  1.12267590E+01  1.12267590E+01  1.12267590E+01  1.19598422E+00
  1.19598422E+00  1.19598422E+00 -1.28831661E+00 -1.74811991E+00 -1.74811991E+00
 -1.17291478E+00 -1.90909570E+00 -1.53189409E+00 -1.72687270E+00 -1.17291478E+00
 -1.90909570E+00 -1.53189409E+00 -1.72687270E+00 -1.28831661E+00 -1.74811991E+00
 -1.74811991E+00 -1.28831661E+00 -1.74811991E+00 -1.74811991E+00 -1.17291478E+00
 -1.90909570E+00 -1.53189409E+00 -1.72687270E+00  2.20549964E+00  2.20549964E+00
  2.20549964E+00  1.59202768E+00  1.59202768E+00  1.59202768E+00  9.27915961E-01
  9.27915961E-01  9.27915961E-01  9.27915961E-01  9.27915961E-01  9.27915961E-01
  9.27915961E-01  9.27915961E-01  9.27915961E-01  1.30047088E+00  7.98337185E-01
  7.98337185E-01  7.98337185E-01  7.98337185E-01  7.98337185E-01  7.98337185E-01
  1.17898281E+00  8.18582161E-01  8.18582161E-01  8.18582161E-01  9.60315210E-01
  9.60315210E-01  6.66735735E-01  6.66735735E-01  6.66735735E-01  1.17898281E+00
  8.18582161E-01  8.18582161E-01  8.18582161E-01  9.60315210E-01  9.60315210E-01
  6.66735735E-01  6.66735735E-01  6.66735735E-01  1.30047088E+00  7.98337185E-01
  7.98337185E-01  7.98337185E-01  7.98337185E-01  7.98337185E-01  7.98337185E-01
  1.30047088E+00  7.98337185E-01  7.98337185E-01  7.98337185E-01  7.98337185E-01
  7.98337185E-01  7.98337185E-01  1.17898281E+00  8.18582161E-01  8.18582161E-01
  8.18582161E-01  9.60315210E-01  9.60315210E-01  6.66735735E-01  6.66735735E-01
  6.66735735E-01
%FLAG ATOMIC_NUMBER                                                             
%FORMAT(10I8)                                                                   
       8       8       8       8       8       8       8       8       8       7
       7       7       6       6       6       6       6       6       6       6
       6       6       6       6       6       6       6       6       6       6
       6       6       6       6       6       6       6       6       6       6
       6       6       6       6       6       6       6       6       1       1
       1       1       1       1       1       1       1       1       1       1
       1       1       1       1       1       1       1       1       1       1
       1       1       1       1       1       1       1       1       1       1
       1       1       1       1       1       1       1       1       1       1
       1       1       1       1       1       1       1       1       1       1
       1       1       1       1       1       1       1       1       1       1
       1
%FLAG MASS                                                                      
%FORMAT(5E16.8)                                                                 
  1.60000000E+01  1.60000000E+01  1.60000000E+01  1.60000000E+01  1.60000000E+01
  1.60000000E+01  1.60000000E+01  1.60000000E+01  1.60000000E+01  1.40100000E+01
  1.40100000E+01  1.40100000E+01  1.20100000E+01  1.20100000E+01  1.20100000E+01
  1.20100000E+01  1.20100000E+01  1.20100000E+01  1.20100000E+01  1.20100000E+01
  1.20100000E+01  1.20100000E+01  1.20100000E+01  1.20100000E+01  1.20100000E+01
  1.20100000E+01  1.20100000E+01  1.20100000E+01  1.20100000E+01  1.20100000E+01
  1.20100000E+01  1.20100000E+01  1.20100000E+01  1.20100000E+01  1.20100000E+01
  1.20100000E+01  1.20100000E+01  1.20100000E+01  1.20100000E+01  1.20100000E+01
  1.20100000E+01  1.20100000E+01  1.20100000E+01  1.20100000E+01  1.20100000E+01
  1.20100000E+01  1.20100000E+01  1.20100000E+01  1.00800000E+00  1.00800000E+00
  1.00800000E+00  1.00800000E+00  1.00800000E+00  1.00800000E+00  1.00800000E+00
  1.00800000E+00  1.00800000E+00  1.00800000E+00  1.00800000E+00  1.00800000E+00
  1.00800000E+00  1.00800000E+00  1.00800000E+00  1.00800000E+00  1.00800000E+00
  1.00800000E+00  1.00800000E+00  1.00800000E+00  1.00800000E+00  1.00800000E+00
  1.00800000E+00  1.00800000E+00  1.00800000E+00  1.00800000E+00  1.00800000E+00
  1.00800000E+00  1.00800000E+00  1.00800000E+00  1.00800000E+00  1.00800000E+00
  1.00800000E+00  1.00800000E+00  1.00800000E+00  1.00800000E+00  1.00800000E+00
  1.00800000E+00  1.00800000E+00  1.00800000E+00  1.00800000E+00  1.00800000E+00
  1.00800000E+00  1.00800000E+00  1.00800000E+00  1.00800000E+00  1.00800000E+00
  1.00800000E+00  1.00800000E+00  1.00800000E+00  1.00800000E+00  1.00800000E+00
  1.00800000E+00  1.00800000E+00  1.00800000E+00  1.00800000E+00  1.00800000E+00
  1.00800000E+00  1.00800000E+00  1.00800000E+00  1.00800000E+00  1.00800000E+00
  1.00800000E+00
%FLAG ATOM_TYPE_INDEX                                                           
%FORMAT(10I8)                                                                   
       1       1       1       2       2       2       2       2       2       3
       3       3       4       4       4       4       4       4       5       5
       5       5       5       5       4       4       4       4       4       4
       4       4       4       4       4       4       4       4       4       4
       4       4       4       4       4       4       4       4       6       6
       6       6       6       6       6       6       6       6       6       6
       6       6       6       7       7       7       7       7       7       7
       7       7       7       7       7       7       7       7       7       7
       7       7       7       7       7       7       7       7       7       7
       7       7       7       7       7       7       7       7       7       7
       7       7       7       7       7       7       7       7       7       7
       7
%FLAG NUMBER_EXCLUDED_ATOMS                                                     
%FORMAT(10I8)                                                                   
      15      15      15       7       7       7       6       6       6      15
      15      15      19      19      19      14      14      14      13      13
      13       8       8       8       5       5       5      10       9       8
      13       9      11       6      13       9      11       6      10       9
       8      10       9       8      13       9      11       6       1       1
       1       1       1       1       2       1       1       2       1       1
       2       1       1       6       2       1       1       2       1       1
       5       2       1       1       4       3       2       1       1       5
       2       1       1       4       3       2       1       1       6       2
       1       1       2       1       1       6       2       1       1       2
       1       1       5       2       1       1       4       3       2       1
       1
%FLAG NONBONDED_PARM_INDEX                                                      
%FORMAT(10I8)                                                                   
       1       2       4       7      11      16      22       2       3       5
       8      12      17      23       4       5       6       9      13      18
      24       7       8       9      10      14      19      25      11      12
      13      14      15      20      26      16      17      18      19      20
      21      27      22      23      24      25      26      27      28
%FLAG RESIDUE_LABEL                                                             
%FORMAT(20a4)                                                                   
UNL 
%FLAG RESIDUE_POINTER                                                           
%FORMAT(10I8)                                                                   
       1
%FLAG BOND_FORCE_CONSTANT                                                       
%FORMAT(5E16.8)                                                                 
  2.82270000E+02  3.51310000E+02  5.90600000E+02  2.54460000E+02  3.17460000E+02
  2.34850000E+02  2.28890000E+02  3.44220000E+02  3.45250000E+02
%FLAG BOND_EQUIL_VALUE                                                          
%FORMAT(5E16.8)                                                                 
  1.42730000E+00  1.36210000E+00  1.21900000E+00  1.46430000E+00  1.39670000E+00
  1.52700000E+00  1.53540000E+00  1.09690000E+00  1.09620000E+00
%FLAG ANGLE_FORCE_CONSTANT                                                      
%FORMAT(5E16.8)                                                                 
  7.71000000E+01  7.74400000E+01  5.62000000E+01  1.01260000E+02  7.79700000E+01
  8.66800000E+01  7.64500000E+01  6.53900000E+01  6.49500000E+01  4.80900000E+01
  6.51900000E+01  7.72400000E+01  7.62100000E+01  5.98700000E+01  4.32700000E+01
  8.94300000E+01  6.03600000E+01  4.37400000E+01  4.32800000E+01  3.56400000E+01
  3.58000000E+01
%FLAG ANGLE_EQUIL_VALUE                                                         
%FORMAT(5E16.8)                                                                 
  1.90712209E+00  1.87832415E+00  1.92579712E+00  2.15024656E+00  1.93382564E+00
  2.13925098E+00  2.14501057E+00  1.95372240E+00  1.96838317E+00  1.89822091E+00
  2.04482863E+00  2.07397564E+00  2.03767278E+00  1.96576518E+00  1.91427794E+00
  2.02144121E+00  1.94482122E+00  1.89141412E+00  1.91270715E+00  1.89455572E+00
  1.88024401E+00
%FLAG DIHEDRAL_FORCE_CONSTANT                                                   
%FORMAT(5E16.8)                                                                 
  0.00000000E+00  1.07000000E+00  2.10000000E-01  0.00000000E+00  1.55555556E-01
  2.50000000E-01  0.00000000E+00  2.50000000E+00  6.80000000E-01  2.00000000E-01
  4.40000000E-01  8.00000000E-01  8.00000000E-02  1.40000000E+00  2.70000000E+00
  1.00000000E-01  7.10000000E-01  0.00000000E+00  2.93000000E+00  1.41000000E+00
  5.00000000E-01  0.00000000E+00  1.89000000E+00  3.29000000E+00  7.50000000E-01
  5.20000000E-01  1.30000000E-01  6.40000000E-01  3.90000000E-01  2.26000000E+00
  3.00000000E-02  6.50000000E-01  3.83333333E-01  4.60000000E-01  4.00000000E-02
  8.00000000E-01  3.83000000E-01  1.20000000E-01  1.10000000E+00  1.05000000E+01
%FLAG DIHEDRAL_PERIODICITY                                                      
%FORMAT(5E16.8)                                                                 
  1.00000000E+00  2.00000000E+00  3.00000000E+00  2.00000000E+00  3.00000000E+00
  1.00000000E+00  3.00000000E+00  2.00000000E+00  1.00000000E+00  2.00000000E+00
  3.00000000E+00  1.00000000E+00  3.00000000E+00  1.00000000E+00  2.00000000E+00
  3.00000000E+00  2.00000000E+00  4.00000000E+00  1.00000000E+00  2.00000000E+00
  3.00000000E+00  2.00000000E+00  1.00000000E+00  2.00000000E+00  3.00000000E+00
  3.00000000E+00  3.00000000E+00  1.00000000E+00  2.00000000E+00  1.00000000E+00
  3.00000000E+00  4.00000000E+00  3.00000000E+00  1.00000000E+00  2.00000000E+00
  1.00000000E+00  3.00000000E+00  3.00000000E+00  2.00000000E+00  2.00000000E+00
%FLAG DIHEDRAL_PHASE                                                            
%FORMAT(5E16.8)                                                                 
  3.14159400E+00  3.14159400E+00  3.14159400E+00  3.14159400E+00  0.00000000E+00
  0.00000000E+00  0.00000000E+00  3.14159400E+00  0.00000000E+00  3.14159400E+00
  3.14159400E+00  0.00000000E+00  3.14159400E+00  3.14159400E+00  3.14159400E+00
  0.00000000E+00  3.14159400E+00  3.14159400E+00  0.00000000E+00  3.14159400E+00
  0.00000000E+00  0.00000000E+00  3.14159400E+00  3.14159400E+00  0.00000000E+00
  0.00000000E+00  0.00000000E+00  0.00000000E+00  3.14159400E+00  0.00000000E+00
  3.14159400E+00  3.14159400E+00  0.00000000E+00  3.14159400E+00  0.00000000E+00
  3.14159400E+00  0.00000000E+00  0.00000000E+00  3.14159400E+00  3.14159400E+00
%FLAG SCEE_SCALE_FACTOR                                                         
%FORMAT(5E16.8)                                                                 
  1.20000000E+00  1.20000000E+00  1.20000000E+00  1.20000000E+00  1.20000000E+00
  1.20000000E+00  1.20000000E+00  1.20000000E+00  1.20000000E+00  1.20000000E+00
  1.20000000E+00  1.20000000E+00  1.20000000E+00  1.20000000E+00  1.20000000E+00
  1.20000000E+00  1.20000000E+00  1.20000000E+00  1.20000000E+00  1.20000000E+00
  1.20000000E+00  1.20000000E+00  1.20000000E+00  1.20000000E+00  1.20000000E+00
  1.20000000E+00  1.20000000E+00  1.20000000E+00  1.20000000E+00  1.20000000E+00
  1.20000000E+00  1.20000000E+00  1.20000000E+00  1.20000000E+00  1.20000000E+00
  1.20000000E+00  1.20000000E+00  1.20000000E+00  0.00000000E+00  0.00000000E+00
%FLAG SCNB_SCALE_FACTOR                                                         
%FORMAT(5E16.8)                                                                 
  2.00000000E+00  2.00000000E+00  2.00000000E+00  2.00000000E+00  2.00000000E+00
  2.00000000E+00  2.00000000E+00  2.00000000E+00  2.00000000E+00  2.00000000E+00
  2.00000000E+00  2.00000000E+00  2.00000000E+00  2.00000000E+00  2.00000000E+00
  2.00000000E+00  2.00000000E+00  2.00000000E+00  2.00000000E+00  2.00000000E+00
  2.00000000E+00  2.00000000E+00  2.00000000E+00  2.00000000E+00  2.00000000E+00
  2.00000000E+00  2.00000000E+00  2.00000000E+00  2.00000000E+00  2.00000000E+00
  2.00000000E+00  2.00000000E+00  2.00000000E+00  2.00000000E+00  2.00000000E+00
  2.00000000E+00  2.00000000E+00  2.00000000E+00  0.00000000E+00  0.00000000E+00
%FLAG SOLTY                                                                     
%FORMAT(5E16.8)                                                                 
  0.00000000E+00  0.00000000E+00  0.00000000E+00  0.00000000E+00  0.00000000E+00
  0.00000000E+00  0.00000000E+00
%FLAG LENNARD_JONES_ACOEF                                                       
%FORMAT(5E16.8)                                                                 
  2.83662575E+05  3.27367585E+05  3.76435470E+05  4.46307018E+05  5.15491878E+05
  7.02078680E+05  5.42502534E+05  6.30925504E+05  8.52084164E+05  1.02073671E+06
  4.46121722E+05  5.17507491E+05  7.01106848E+05  8.43969952E+05  6.96551276E+05
  3.44374471E+04  3.86646725E+04  5.45183252E+04  6.97998263E+04  5.63013422E+04
  3.39005767E+03  5.02224902E+04  5.68021765E+04  7.93773615E+04  1.00235148E+05
  8.12662403E+04  5.22955465E+03  7.94617769E+03
%FLAG LENNARD_JONES_BCOEF                                                       
%FORMAT(5E16.8)                                                                 
  2.87011518E+02  3.67361018E+02  4.69350655E+02  4.41089616E+02  5.64804067E+02
  6.77820248E+02  4.38146883E+02  5.62969425E+02  6.72777963E+02  6.63431737E+02
  3.88758656E+02  4.98871431E+02  5.97113873E+02  5.90251928E+02  5.24668528E+02
  7.31636661E+01  9.23664132E+01  1.12788003E+02  1.14981426E+02  1.01040256E+02
  1.67944276E+01  8.83545880E+01  1.11953944E+02  1.36094315E+02  1.37787728E+02
  1.21392023E+02  2.08590256E+01  2.57122925E+01
%FLAG BONDS_INC_HYDROGEN                                                        
%FORMAT(10I8)                                                                   
      36     144       8      39     147       8      42     150       8      45
     153       8      48     156       8      51     159       8      72     162
       8      72     165       8      72     168       8      75     171       8
      75     174       8      75     177       8      78     180       8      78
     183       8      78     186       8      81     189       9      84     192
       9      84     195       9      84     198       9      87     201       9
      87     204       9      87     207       9      90     210       9      93
     213       9      93     216       9      93     219       9      96     222
       9      96     225       9      99     228       9      99     231       9
      99     234       9     102     237       9     105     240       9     105
     243       9     105     246       9     108     249       9     108     252
       9     111     255       9     111     258       9     111     261       9
     114     264       9     117     267       9     117     270       9     117
     273       9     120     276       9     120     279       9     120     282
       9     123     285       9     126     288       9     126     291       9
     126     294       9     129     297       9     129     300       9     129
     303       9     132     306       9     135     309       9     135     312
       9     135     315       9     138     318       9     138     321       9
     141     324       9     141     327       9     141     330       9
%FLAG BONDS_WITHOUT_HYDROGEN                                                    
%FORMAT(10I8)                                                                   
       0      45       1       0      63       2       3      48       1       3
      66       2       6      69       2       6      51       1       9      54
       3      12      57       3      15      60       3      18      63       3
      21      66       3      24      69       3      27      36       4      27
      54       5      27      72       4      30      39       4      30      75
       4      30      57       5      33      60       5      33      42       4
      33      78       4      36      66       6      36     102       7      39
      90       7      39      63       6      42     132       7      42      69
       6      45      54       6      45      81       7      48     123       7
      48      60       6      51      57       6      51     114       7      81
      84       7      81      87       7      90      96       7      90      93
       7      96      99       7     102     108       7     102     105       7
     108     111       7     114     117       7     114     120       7     123
     129       7     123     126       7     132     138       7     132     135
       7     138     141       7
%FLAG ANGLES_INC_HYDROGEN                                                       
%FORMAT(10I8)                                                                   
       0      45     153       3       3      48     156       3       6      51
     159       3      27      36     144      10      27      72     162      10
      27      72     165      10      27      72     168      10      30      39
     147      10      30      75     171      10      30      75     174      10
      30      75     177      10      33      42     150      10      33      78
     180      10      33      78     183      10      33      78     186      10
      36     102     237      15      39      90     210      15      42     132
     306      15      45      81     189      15      48     123     285      15
      51     114     264      15      54      45     153      18      57      51
     159      18      60      48     156      18      63      39     147      18
      66      36     144      18      69      42     150      18      81      45
     153      19      81      84     192      15      81      84     195      15
      81      84     198      15      81      87     201      15      81      87
     204      15      81      87     207      15      84      81     189      15
      87      81     189      15      90      39     147      19      90      96
     222      15      90      96     225      15      90      93     213      15
      90      93     216      15      90      93     219      15      93      90
     210      15      96      90     210      15      96      99     228      15
      96      99     231      15      96      99     234      15      99      96
     222      15      99      96     225      15     102      36     144      19
     102     108     249      15     102     108     252      15     102     105
     240      15     102     105     243      15     102     105     246      15
     105     102     237      15     108     102     237      15     108     111
     255      15     108     111     258      15     108     111     261      15
     111     108     249      15     111     108     252      15     114      51
     159      19     114     117     267      15     114     117     270      15
     114     117     273      15     114     120     276      15     114     120
     279      15     114     120     282      15     117     114     264      15
     120     114     264      15     123      48     156      19     123     129
     297      15     123     129     300      15     123     129     303      15
     123     126     288      15     123     126     291      15     123     126
     294      15     126     123     285      15     129     123     285      15
     132      42     150      19     132     138     318      15     132     138
     321      15     132     135     309      15     132     135     312      15
     132     135     315      15     135     132     306      15     138     132
     306      15     138     141     324      15     138     141     327      15
     138     141     330      15     141     138     318      15     141     138
     321      15     162      72     165      20     162      72     168      20
     165      72     168      20     171      75     174      20     171      75
     177      20     174      75     177      20     180      78     183      20
     180      78     186      20     183      78     186      20     192      84
     195      21     192      84     198      21     195      84     198      21
     201      87     204      21     201      87     207      21     204      87
     207      21     213      93     216      21     213      93     219      21
     216      93     219      21     222      96     225      21     228      99
     231      21     228      99     234      21     231      99     234      21
     240     105     243      21     240     105     246      21     243     105
     246      21     249     108     252      21     255     111     258      21
     255     111     261      21     258     111     261      21     267     117
     270      21     267     117     273      21     270     117     273      21
     276     120     279      21     276     120     282      21     279     120
     282      21     288     126     291      21     288     126     294      21
     291     126     294      21     297     129     300      21     297     129
     303      21     300     129     303      21     309     135     312      21
     309     135     315      21     312     135     315      21     318     138
     321      21     324     141     327      21     324     141     330      21
     327     141     330      21
%FLAG ANGLES_WITHOUT_HYDROGEN                                                   
%FORMAT(10I8)                                                                   
       0      45      54       1       0      45      81       2       0      63
      18       4       0      63      39       5       3      48     123       2
       3      48      60       1       3      66      21       4       3      66
      36       5       6      69      24       4       6      69      42       5
       6      51      57       1       6      51     114       2       9      54
      27       6       9      54      45       7      12      57      30       6
      12      57      51       7      15      60      33       6      15      60
      48       7      18      63      39       7      21      66      36       7
      24      69      42       7      27      36      66       8      27      36
     102       9      27      54      45      11      30      39      90       9
      30      39      63       8      30      57      51      11      33      60
      48      11      33      42     132       9      33      42      69       8
      36      27      54      12      36      27      72      13      36     102
     108      14      36     102     105      14      39      30      75      13
      39      30      57      12      39      90      96      14      39      90
      93      14      42      33      60      12      42      33      78      13
      42     132     138      14      42     132     135      14      45       0
      63      16      45      81      84      14      45      81      87      14
      48       3      66      16      48     123     129      14      48     123
     126      14      51       6      69      16      51     114     117      14
      51     114     120      14      54      27      72      12      54      45
      81      17      57      30      75      12      57      51     114      17
      60      33      78      12      60      48     123      17      63      39
      90      17      66      36     102      17      69      42     132      17
      84      81      87      14      90      96      99      14      93      90
      96      14     102     108     111      14     105     102     108      14
     117     114     120      14     126     123     129      14     132     138
     141      14     135     132     138      14
%FLAG DIHEDRALS_INC_HYDROGEN                                                    
%FORMAT(10I8)                                                                   
       0      45      81     189       6       0      45     -81     189       7
       0      63      39     147       4       3      48     123     285       6
       3      48    -123     285       7       3      66      36     144       4
       6      69      42     150       4       6      51     114     264       6
       6      51    -114     264       7       9      54      45     153      12
       9      54     -45     153      13      12      57      51     159      12
      12      57     -51     159      13      15      60      48     156      12
      15      60     -48     156      13      18      63      39     147      12
      18      63     -39     147      13      21      66      36     144      12
      21      66     -36     144      13      24      69      42     150      12
      24      69     -42     150      13      27      36     102     237       5
      27      54      45     153       4      30      39      90     210       5
      30      57      51     159       4      33      60      48     156       4
      33      42     132     306       5      36      27      72     162      22
      36      27      72     165      22      36      27      72     168      22
      36     102     108     249      27      36     102     108     252      27
      36     102     105     240      27      36     102     105     243      27
      36     102     105     246      27      39      30      75     171      22
      39      30      75     174      22      39      30      75     177      22
      39      90      96     222      27      39      90      96     225      27
      39      90      93     213      27      39      90      93     216      27
      39      90      93     219      27      42      33      78     180      22
      42      33      78     183      22      42      33      78     186      22
      42     132     138     318      27      42     132     138     321      27
      42     132     135     309      27      42     132     135     312      27
      42     132     135     315      27      45      81      84     192      27
      45      81      84     195      27      45      81      84     198      27
      45      81      87     201      27      45      81      87     204      27
      45      81      87     207      27      48     123     129     297      27
      48     123     129     300      27      48     123     129     303      27
      48     123     126     288      27      48     123     126     291      27
      48     123     126     294      27      51     114     117     267      27
      51     114     117     270      27      51     114     117     273      27
      51     114     120     276      27      51     114     120     279      27
      51     114     120     282      27      54      27      36     144       4
      54      27      72     162       4      54      27      72     165       4
      54      27      72     168       4      54      45      81     189       5
      57      30      39     147       4      57      30      75     171       4
      57      30      75     174       4      57      30      75     177       4
      57      51     114     264       5      60      33      42     150       4
      60      33      78     180       4      60      33      78     183       4
      60      33      78     186       4      60      48     123     285       5
      63       0      45     153      33      63      39      90     210       5
      66       3      48     156      33      66      36     102     237       5
      69       6      51     159      33      69      42     132     306       5
      72      27      36     144      22      75      30      39     147      22
      78      33      42     150      22      84      81      45     153       5
      84      81      87     201      27      84      81      87     204      27
      84      81      87     207      27      87      81      45     153       5
      87      81      84     192      27      87      81      84     195      27
      87      81      84     198      27      90      96      99     228      27
      90      96      99     231      27      90      96      99     234      27
      93      90      39     147       5      93      90      96     222      27
      93      90      96     225      27      96      90      39     147       5
      96      90      93     213      27      96      90      93     216      27
      96      90      93     219      27      99      96      90     210      27
     102     108     111     255      27     102     108     111     258      27
     102     108     111     261      27     105     102      36     144       5
     105     102     108     249      27     105     102     108     252      27
     108     102      36     144       5     108     102     105     240      27
     108     102     105     243      27     108     102     105     246      27
     111     108     102     237      27     117     114      51     159       5
     117     114     120     276      27     117     114     120     279      27
     117     114     120     282      27     120     114      51     159       5
     120     114     117     267      27     120     114     117     270      27
     120     114     117     273      27     126     123      48     156       5
     126     123     129     297      27     126     123     129     300      27
     126     123     129     303      27     129     123      48     156       5
     129     123     126     288      27     129     123     126     291      27
     129     123     126     294      27     132     138     141     324      27
     132     138     141     327      27     132     138     141     330      27
     135     132      42     150       5     135     132     138     318      27
     135     132     138     321      27     138     132      42     150       5
     138     132     135     309      27     138     132     135     312      27
     138     132     135     315      27     141     138     132     306      27
     144      36     102     237       5     147      39      90     210       5
     150      42     132     306       5     153      45      81     189       5
     156      48     123     285       5     159      51     114     264       5
     189      81      84     192      38     189      81      84     195      38
     189      81      84     198      38     189      81      87     201      38
     189      81      87     204      38     189      81      87     207      38
     210      90      96     222      38     210      90      96     225      38
     210      90      93     213      38     210      90      93     216      38
     210      90      93     219      38     222      96      99     228      38
     222      96      99     231      38     222      96      99     234      38
     225      96      99     228      38     225      96      99     231      38
     225      96      99     234      38     237     102     108     249      38
     237     102     108     252      38     237     102     105     240      38
     237     102     105     243      38     237     102     105     246      38
     249     108     111     255      38     249     108     111     258      38
     249     108     111     261      38     252     108     111     255      38
     252     108     111     258      38     252     108     111     261      38
     264     114     117     267      38     264     114     117     270      38
     264     114     117     273      38     264     114     120     276      38
     264     114     120     279      38     264     114     120     282      38
     285     123     129     297      38     285     123     129     300      38
     285     123     129     303      38     285     123     126     288      38
     285     123     126     291      38     285     123     126     294      38
     306     132     138     318      38     306     132     138     321      38
     306     132     135     309      38     306     132     135     312      38
     306     132     135     315      38     318     138     141     324      38
     318     138     141     327      38     318     138     141     330      38
     321     138     141     324      38     321     138     141     327      38
     321     138     141     330      38
%FLAG DIHEDRALS_WITHOUT_HYDROGEN                                                
%FORMAT(10I8)                                                                   
       0      45      54       9       1       0      45     -54       9       2
       0      45     -54       9       3       0      45      54      27       4
       0      45      81      84       5       0      45      81      87       5
       0      63      39      30       4       0      63      39      90       4
       3      48     123     129       5       3      48     123     126       5
       3      48      60      15       1       3      48     -60      15       2
       3      48     -60      15       3       3      48      60      33       4
       3      66      36      27       4       3      66      36     102       4
       6      69      42      33       4       6      69      42     132       4
       6      51      57      12       1       6      51     -57      12       2
       6      51     -57      12       3       6      51      57      30       4
       6      51     114     117       5       6      51     114     120       5
       9      54      27      36       8       9      54      27      72       8
       9      54      45      81       9       9      54     -45      81      10
       9      54     -45      81      11      12      57      30      39       8
      12      57      30      75       8      12      57      51     114       9
      12      57     -51     114      10      12      57     -51     114      11
      15      60      33      42       8      15      60      33      78       8
      15      60      48     123       9      15      60     -48     123      10
      15      60     -48     123      11      45       0      63      18      14
      45       0     -63      18      15      18      63      39      30       4
      18      63      39      90       9      18      63     -39      90      10
      18      63     -39      90      11      21      66       3      48      14
      21      66      -3      48      15      21      66      36      27       4
      21      66      36     102       9      21      66     -36     102      10
      21      66     -36     102      11      24      69       6      51      14
      24      69      -6      51      15      24      69      42      33       4
      24      69      42     132       9      24      69     -42     132      10
      24      69     -42     132      11      27      36     102     108      16
      27      36     102     105      16      27      54      45      81      17
      27      54     -45      81      18      30      39      90      96      16
      30      39      90      93      16      30      57      51     114      17
      30      57     -51     114      18      33      60      48     123      17
      33      60     -48     123      18      33      42     132     138      16
      33      42     132     135      16      36      27      54      45      19
      36      27     -54      45      20      36      27     -54      45      21
      36      66       3      48      23      36      66      -3      48      24
      36      66      -3      48      25      36     102     108     111      26
      39      30      57      51      19      39      30     -57      51      20
      39      30     -57      51      21      39      90      96      99      26
      45       0      63      39      23      45       0     -63      39      24
      45       0     -63      39      25      42      33      60      48      19
      42      33     -60      48      20      42      33     -60      48      21
      42     132     138     141      26      42      69       6      51      23
      42      69      -6      51      24      42      69      -6      51      25
      45      54      27      72      19      45      54     -27      72      20
      45      54     -27      72      21      48      60      33      78      19
      48      60     -33      78      20      48      60     -33      78      21
      51      57      30      75      19      51      57     -30      75      20
      51      57     -30      75      21      54      27      36      66      28
      54      27     -36      66      29      54      27      36     102      30
      54      27     -36     102      31      54      27     -36     102      32
      63       0      45      54      33      54      45      81      84      34
      54      45     -81      84      35      54      45     -81      84       7
      54      45      81      87      34      54      45     -81      87      35
      54      45     -81      87       7      57      30      39      90      30
      57      30     -39      90      31      57      30     -39      90      32
      57      30      39      63      28      57      30     -39      63      29
      57      51       6      69      33      57      51     114     117      34
      57      51    -114     117      35      57      51    -114     117       7
      57      51     114     120      34      57      51    -114     120      35
      57      51    -114     120       7      60      33      42     132      30
      60      33     -42     132      31      60      33     -42     132      32
      60      33      42      69      28      60      33     -42      69      29
      60      48       3      66      33      60      48     123     129      34
      60      48    -123     129      35      60      48    -123     129       7
      60      48     123     126      34      60      48    -123     126      35
      60      48    -123     126       7      63       0      45      81      36
      63       0     -45      81      37      63      39      30      75      22
      63      39      90      96      34      63      39     -90      96      35
      63      39     -90      96       7      63      39      90      93      34
      63      39     -90      93      35      63      39     -90      93       7
      66       3      48     123      36      66       3     -48     123      37
      66      36      27      72      22      66      36     102     108      34
      66      36    -102     108      35      66      36    -102     108       7
      66      36     102     105      34      66      36    -102     105      35
      66      36    -102     105       7      69       6      51     114      36
      69       6     -51     114      37      69      42      33      78      22
      69      42     132     138      34      69      42    -132     138      35
      69      42    -132     138       7      69      42     132     135      34
      69      42    -132     135      35      69      42    -132     135       7
      72      27      36     102      22      75      30      39      90      22
      78      33      42     132      22      93      90      96      99      26
     105     102     108     111      26     135     132     138     141      26
      54      36     -27     -72      39      57      39     -30     -75      39
      60      42     -33     -78      39      45      27     -54      -9      40
      51      30     -57     -12      40      48      33     -60     -15      40
       0      63     -18     -39      39      36      21     -66      -3      39
      42      24     -69      -6      39
%FLAG EXCLUDED_ATOMS_LIST                                                       
%FORMAT(10I8)                                                                   
       4       7      10      11      14      16      19      22      28      29
      30      31      50      52      64       6       8      10      12      13
      17      21      23      35      42      43      44      49      53      96
       5       9      11      12      15      18      20      24      39      40
      41      45      51      54      89      10      13      16      19      25
      28      52      11      14      18      20      26      39      54      12
      15      17      21      27      42      53      11      14      16      22
      31      50      10      13      17      23      35      49      12      15
      18      24      45      51      13      16      19      23      25      28
      35      36      37      49      52      55      56      57      80      14
      18      20      22      26      31      32      33      39      50      54
      58      59      60      71      15      17      21      24      27      42
      45      46      47      51      53      61      62      63     103      16
      17      19      23      25      35      36      37      38      49      55
      56      57      80      81      82      83      84      85      16      18
      20      22      26      31      32      33      34      50      58      59
      60      71      72      73      74      75      76      17      18      21
      24      27      45      46      47      48      51      61      62      63
     103     104     105     106     107     108      19      22      25      28
      29      30      52      64      65      66      67      68      69      70
      21      23      27      42      43      44      53      96      97      98
      99     100     101     102      20      24      26      39      40      41
      54      89      90      91      92      93      94      95      22      23
      25      28      29      30      35      49      52      55      56      57
      64      22      24      26      31      39      40      41      50      54
      58      59      60      89      23      24      27      42      43      44
      45      51      53      61      62      63      96      26      28      31
      32      33      50      52      71      25      35      36      37      42
      49      53      80      27      39      45      46      47      51      54
     103      35      49      55      56      57      31      50      58      59
      60      45      51      61      62      63      29      30      52      64
      65      66      67      68      69      70      30      52      64      65
      66      67      68      69      70      52      64      65      66      67
      68      69      70      32      33      34      50      71      72      73
      74      75      76      77      78      79      33      34      50      71
      72      73      74      75      76      34      50      71      72      73
      74      75      76      77      78      79      71      75      76      77
      78      79      36      37      38      49      80      81      82      83
      84      85      86      87      88      37      38      49      80      81
      82      83      84      85      38      49      80      81      82      83
      84      85      86      87      88      80      84      85      86      87
      88      40      41      54      89      90      91      92      93      94
      95      41      54      89      90      91      92      93      94      95
      54      89      90      91      92      93      94      95      43      44
      53      96      97      98      99     100     101     102      44      53
      96      97      98      99     100     101     102      53      96      97
      98      99     100     101     102      46      47      48      51     103
     104     105     106     107     108     109     110     111      47      48
      51     103     104     105     106     107     108      48      51     103
     104     105     106     107     108     109     110     111     103     107
     108     109     110     111      80      71     103      64      96      89
      56      57      57       0      59      60      60       0      62      63
      63       0      65      66      67      68      69      70      66      67
      67       0      69      70      70       0      72      73      74      75
      76      73      74      74       0      76      77      78      79      77
      78      79      78      79      79       0      81      82      83      84
      85      82      83      83       0      85      86      87      88      86
      87      88      87      88      88       0      90      91      92      93
      94      95      91      92      92       0      94      95      95       0
      97      98      99     100     101     102      98      99      99       0
     101     102     102       0     104     105     106     107     108     105
     106     106       0     108     109     110     111     109     110     111
     110     111     111       0
%FLAG HBOND_ACOEF                                                               
%FORMAT(5E16.8)                                                                 

%FLAG HBOND_BCOEF                                                               
%FORMAT(5E16.8)                                                                 

%FLAG HBCUT                                                                     
%FORMAT(5E16.8)                                                                 

%FLAG AMBER_ATOM_TYPE                                                           
%FORMAT(20a4)                                                                   
os  os  os  o   o   o   o   o   o   n   n   n   c3  c3  c3  c3  c3  c3  c   c   
c   c   c   c   c3  c3  c3  c3  c3  c3  c3  c3  c3  c3  c3  c3  c3  c3  c3  c3  
c3  c3  c3  c3  c3  c3  c3  c3  h1  h1  h1  h1  h1  h1  h1  h1  h1  h1  h1  h1  
h1  h1  h1  hc  hc  hc  hc  hc  hc  hc  hc  hc  hc  hc  hc  hc  hc  hc  hc  hc  
hc  hc  hc  hc  hc  hc  hc  hc  hc  hc  hc  hc  hc  hc  hc  hc  hc  hc  hc  hc  
hc  hc  hc  hc  hc  hc  hc  hc  hc  hc  hc  
%FLAG TREE_CHAIN_CLASSIFICATION                                                 
%FORMAT(20a4)                                                                   
BLA BLA BLA BLA BLA BLA BLA BLA BLA BLA BLA BLA BLA BLA BLA BLA BLA BLA BLA BLA 
BLA BLA BLA BLA BLA BLA BLA BLA BLA BLA BLA BLA BLA BLA BLA BLA BLA BLA BLA BLA 
BLA BLA BLA BLA BLA BLA BLA BLA BLA BLA BLA BLA BLA BLA BLA BLA BLA BLA BLA BLA 
BLA BLA BLA BLA BLA BLA BLA BLA BLA BLA BLA BLA BLA BLA BLA BLA BLA BLA BLA BLA 
BLA BLA BLA BLA BLA BLA BLA BLA BLA BLA BLA BLA BLA BLA BLA BLA BLA BLA BLA BLA 
BLA BLA BLA BLA BLA BLA BLA BLA BLA BLA BLA 
%FLAG JOIN_ARRAY                                                                
%FORMAT(10I8)                                                                   
       0       0       0       0       0       0       0       0       0       0
       0       0       0       0       0       0       0       0       0       0
       0       0       0       0       0       0       0       0       0       0
       0       0       0       0       0       0       0       0       0       0
       0       0       0       0       0       0       0       0       0       0
       0       0       0       0       0       0       0       0       0       0
       0       0       0       0       0       0       0       0       0       0
       0       0       0       0       0       0       0       0       0       0
       0       0       0       0       0       0       0       0       0       0
       0       0       0       0       0       0       0       0       0       0
       0       0       0       0       0       0       0       0       0       0
       0
%FLAG IROTAT                                                                    
%FORMAT(10I8)                                                                   
       0       0       0       0       0       0       0       0       0       0
       0       0       0       0       0       0       0       0       0       0
       0       0       0       0       0       0       0       0       0       0
       0       0       0       0       0       0       0       0       0       0
       0       0       0       0       0       0       0       0       0       0
       0       0       0       0       0       0       0       0       0       0
       0       0       0       0       0       0       0       0       0       0
       0       0       0       0       0       0       0       0       0       0
       0       0       0       0       0       0       0       0       0       0
       0       0       0       0       0       0       0       0       0       0
       0       0       0       0       0       0       0       0       0       0
       0
%FLAG RADIUS_SET                                                                
%FORMAT(1a80)                                                                   
modified Bondi radii (mbondi)                                                   
%FLAG RADII                                                                     
%FORMAT(5E16.8)                                                                 
  1.50000000E+00  1.50000000E+00  1.50000000E+00  1.50000000E+00  1.50000000E+00
  1.50000000E+00  1.50000000E+00  1.50000000E+00  1.50000000E+00  1.55000000E+00
  1.55000000E+00  1.55000000E+00  1.70000000E+00  1.70000000E+00  1.70000000E+00
  1.70000000E+00  1.70000000E+00  1.70000000E+00  1.70000000E+00  1.70000000E+00
  1.70000000E+00  1.70000000E+00  1.70000000E+00  1.70000000E+00  1.70000000E+00
  1.70000000E+00  1.70000000E+00  1.70000000E+00  1.70000000E+00  1.70000000E+00
  1.70000000E+00  1.70000000E+00  1.70000000E+00  1.70000000E+00  1.70000000E+00
  1.70000000E+00  1.70000000E+00  1.70000000E+00  1.70000000E+00  1.70000000E+00
  1.70000000E+00  1.70000000E+00  1.70000000E+00  1.70000000E+00  1.70000000E+00
  1.70000000E+00  1.70000000E+00  1.70000000E+00  1.30000000E+00  1.30000000E+00
  1.30000000E+00  1.30000000E+00  1.30000000E+00  1.30000000E+00  1.30000000E+00
  1.30000000E+00  1.30000000E+00  1.30000000E+00  1.30000000E+00  1.30000000E+00
  1.30000000E+00  1.30000000E+00  1.30000000E+00  1.30000000E+00  1.30000000E+00
  1.30000000E+00  1.30000000E+00  1.30000000E+00  1.30000000E+00  1.30000000E+00
  1.30000000E+00  1.30000000E+00  1.30000000E+00  1.30000000E+00  1.30000000E+00
  1.30000000E+00  1.30000000E+00  1.30000000E+00  1.30000000E+00  1.30000000E+00
  1.30000000E+00  1.30000000E+00  1.30000000E+00  1.30000000E+00  1.30000000E+00
  1.30000000E+00  1.30000000E+00  1.30000000E+00  1.30000000E+00  1.30000000E+00
  1.30000000E+00  1.30000000E+00  1.30000000E+00  1.30000000E+00  1.30000000E+00
  1.30000000E+00  1.30000000E+00  1.30000000E+00  1.30000000E+00  1.30000000E+00
  1.30000000E+00  1.30000000E+00  1.30000000E+00  1.30000000E+00  1.30000000E+00
  1.30000000E+00  1.30000000E+00  1.30000000E+00  1.30000000E+00  1.30000000E+00
  1.30000000E+00
%FLAG SCREEN                                                                    
%FORMAT(5E16.8)                                                                 
  8.50000000E-01  8.50000000E-01  8.50000000E-01  8.50000000E-01  8.50000000E-01
  8.50000000E-01  8.50000000E-01  8.50000000E-01  8.50000000E-01  7.90000000E-01
  7.90000000E-01  7.90000000E-01  7.20000000E-01  7.20000000E-01  7.20000000E-01
  7.20000000E-01  7.20000000E-01  7.20000000E-01  7.20000000E-01  7.20000000E-01
  7.20000000E-01  7.20000000E-01  7.20000000E-01  7.20000000E-01  7.20000000E-01
  7.20000000E-01  7.20000000E-01  7.20000000E-01  7.20000000E-01  7.20000000E-01
  7.20000000E-01  7.20000000E-01  7.20000000E-01  7.20000000E-01  7.20000000E-01
  7.20000000E-01  7.20000000E-01  7.20000000E-01  7.20000000E-01  7.20000000E-01
  7.20000000E-01  7.20000000E-01  7.20000000E-01  7.20000000E-01  7.20000000E-01
  7.20000000E-01  7.20000000E-01  7.20000000E-01  8.50000000E-01  8.50000000E-01
  8.50000000E-01  8.50000000E-01  8.50000000E-01  8.50000000E-01  8.50000000E-01
  8.50000000E-01  8.50000000E-01  8.50000000E-01  8.50000000E-01  8.50000000E-01
  8.50000000E-01  8.50000000E-01  8.50000000E-01  8.50000000E-01  8.50000000E-01
  8.50000000E-01  8.50000000E-01  8.50000000E-01  8.50000000E-01  8.50000000E-01
  8.50000000E-01  8.50000000E-01  8.50000000E-01  8.50000000E-01  8.50000000E-01
  8.50000000E-01  8.50000000E-01  8.50000000E-01  8.50000000E-01  8.50000000E-01
  8.50000000E-01  8.50000000E-01  8.50000000E-01  8.50000000E-01  8.50000000E-01
  8.50000000E-01  8.50000000E-01  8.50000000E-01  8.50000000E-01  8.50000000E-01
  8.50000000E-01  8.50000000E-01  8.50000000E-01  8.50000000E-01  8.50000000E-01
  8.50000000E-01  8.50000000E-01  8.50000000E-01  8.50000000E-01  8.50000000E-01
  8.50000000E-01  8.50000000E-01  8.50000000E-01  8.50000000E-01  8.50000000E-01
  8.50000000E-01  8.50000000E-01  8.50000000E-01  8.50000000E-01  8.50000000E-01
  8.50000000E-01
%FLAG IPOL                                                                      
%FORMAT(1I8)                                                                    
       0
