Results/Site2/HOLO/ENA/ENA-Site
   111
  11.4280000  -0.1340000 -23.1420000   6.8210000  -1.3490000 -24.8940000
   8.4940000   2.6300000 -22.6960000  10.3350000  -1.7560000 -24.8440000
  10.2540000   4.5120000 -20.4060000   8.2850000   0.8040000 -25.2940000
  12.2550000   0.6250000 -21.1270000   7.0530000  -1.3240000 -22.5970000
   8.6720000   4.8950000 -23.0640000   9.3080000  -2.9140000 -23.1160000
  11.5230000   3.2120000 -21.8470000   6.6840000   2.3390000 -24.6120000
   8.0820000  -3.0930000 -23.9190000  11.6310000   2.1830000 -22.9030000
   7.6280000   3.4740000 -24.7400000  11.3230000  -1.4990000 -22.6840000
   6.1070000  -0.0970000 -24.8720000   9.0990000   2.6510000 -21.4000000
  10.3030000  -2.0840000 -23.6520000  10.3330000   3.5540000 -21.1840000
   7.1250000   1.0480000 -24.9420000  11.8260000   0.8220000 -22.2540000
   7.2630000  -1.8290000 -23.6920000   8.2860000   3.7810000 -23.3950000
   9.3620000  -3.4820000 -21.7670000  12.7440000   3.9220000 -21.4670000
   5.3580000   2.6510000 -24.0700000  12.6610000  -2.2030000 -22.8220000
  13.2550000  -1.9660000 -24.2090000  12.5120000  -3.6990000 -22.5520000
  12.7270000   2.4320000 -23.9380000  13.8920000   1.4680000 -23.6990000
  12.2140000   2.2840000 -25.3810000  11.1650000   3.3180000 -25.7630000
   7.2360000  -4.3190000 -23.6050000   5.8050000  -4.1030000 -24.1060000
   7.8130000  -5.6060000 -24.2200000   7.2090000  -6.8790000 -23.6430000
   7.9980000   2.9560000 -20.3820000   6.6600000   2.3950000 -20.8550000
   8.3640000   2.3900000 -19.0110000   5.2080000  -0.0740000 -26.1000000
   4.3470000  -1.3350000 -26.1620000   6.0380000   0.0690000 -27.3750000
   6.9960000   4.7230000 -25.3520000   6.5520000   5.6830000 -24.2430000
   7.9460000   5.4530000 -26.3200000   7.7370000   6.9600000 -26.3530000
   8.3790000  -3.2570000 -24.9340000  10.7140000   2.2260000 -23.4530000
   8.3850000   3.1660000 -25.4300000  11.0430000  -1.5950000 -21.6560000
   5.5240000   0.0130000 -23.9820000   9.5320000   1.6810000 -21.2730000
   8.4890000  -4.0770000 -21.5950000   9.4010000  -2.6910000 -21.0480000
  10.2350000  -4.0930000 -21.6720000  13.5640000   3.5590000 -22.0510000
  12.9440000   3.7560000 -20.4290000  12.6170000   4.9700000 -21.6430000
   4.7710000   1.7570000 -24.0260000   4.8730000   3.3650000 -24.7020000
   5.4620000   3.0580000 -23.0860000  13.3310000  -1.7940000 -22.0950000
  12.5990000  -2.3690000 -24.9520000  14.2080000  -2.4480000 -24.2760000
  13.3740000  -0.9150000 -24.3710000  11.8440000  -4.1260000 -23.2710000
  12.1180000  -3.8460000 -21.5680000  13.4690000  -4.1720000 -22.6280000
  13.0570000   3.4430000 -23.8190000  13.5520000   0.4610000 -23.8200000
  14.2670000   1.6010000 -22.7060000  14.6710000   1.6690000 -24.4040000
  11.7840000   1.3100000 -25.4890000  13.0520000   2.4330000 -26.0290000
  10.3060000   3.2030000 -25.1360000  10.8820000   3.1780000 -26.7850000
  11.5700000   4.3000000 -25.6370000   7.2400000  -4.4440000 -22.5420000
   5.8140000  -3.9790000 -25.1690000   5.3950000  -3.2270000 -23.6480000
   5.2060000  -4.9520000 -23.8510000   8.8680000  -5.6220000 -24.0440000
   7.5760000  -5.5900000 -25.2630000   7.4250000  -6.9340000 -22.5960000
   7.6290000  -7.7290000 -24.1390000   6.1490000  -6.8690000 -23.7890000
   7.9050000   4.0180000 -20.2940000   6.7320000   1.3320000 -20.9500000
   6.4100000   2.8210000 -21.8040000   5.8990000   2.6390000 -20.1430000
   8.4620000   1.3270000 -19.0790000   7.5950000   2.6330000 -18.3080000
   9.2910000   2.8140000 -18.6860000   4.5600000   0.7740000 -26.0230000
   4.9790000  -2.1950000 -26.2400000   3.7040000  -1.2860000 -27.0160000
   3.7550000  -1.4070000 -25.2740000   6.6930000  -0.7710000 -27.4700000
   6.6160000   0.9680000 -27.3250000   5.3860000   0.1100000 -28.2220000
   6.1480000   4.3990000 -25.9190000   7.4070000   6.0000000 -23.6830000
   5.8640000   5.1830000 -23.5930000   6.0750000   6.5360000 -24.6790000
   7.7880000   5.0670000 -27.3050000   8.9430000   5.2810000 -25.9730000
   6.7470000   7.1750000 -26.6970000   8.4490000   7.4040000 -27.0160000
   7.8680000   7.3600000 -25.3690000
