; h2ea_GMX_OPLS.top created by acpype (v: 2023.10.27) on Thu Sep  4 07:59:43 2025

; Include forcefield parameters
#include "ffoplsaa.itp"

; Include h2ea_GMX.itp topology
#include "h2ea_GMX.itp"

; Ligand position restraints
#ifdef POSRES_LIG
#include "posre_h2ea.itp"
#endif

[ system ]
 h2ea

[ molecules ]
; Compound        nmols
 h2ea             1     
