h1ea_GMX.gro created by acpype (v: 2023.10.27) on Thu Sep  4 01:40:55 2025
 111
    1  UNL    O    1   1.232  -0.299   0.288
    1  UNL   O1    2   0.909  -0.171  -0.082
    1  UNL   O2    3   1.215  -0.543  -0.036
    1  UNL   O3    4   1.019  -0.156   0.254
    1  UNL   O4    5   1.508  -0.708   0.040
    1  UNL   O5    6   0.942  -0.400   0.044
    1  UNL   O6    7   1.457  -0.350   0.297
    1  UNL   O7    8   1.133  -0.141  -0.129
    1  UNL   O8    9   1.212  -0.773  -0.034
    1  UNL    N   10   1.136  -0.009   0.118
    1  UNL   N1   11   1.396  -0.611   0.219
    1  UNL   N2   12   0.974  -0.529  -0.146
    1  UNL    C   13   1.020   0.007   0.028
    1  UNL   C1   14   1.288  -0.525   0.273
    1  UNL   C2   15   1.005  -0.650  -0.066
    1  UNL   C3   16   1.256  -0.157   0.280
    1  UNL   C4   17   0.903  -0.288  -0.165
    1  UNL   C5   18   1.356  -0.531  -0.018
    1  UNL   C6   19   1.126  -0.106   0.219
    1  UNL   C7   20   1.426  -0.626   0.082
    1  UNL   C8   21   0.942  -0.410  -0.080
    1  UNL   C9   22   1.339  -0.383   0.288
    1  UNL  C10   23   1.030  -0.109  -0.071
    1  UNL  C11   24   1.156  -0.665  -0.048
    1  UNL  C12   25   1.258   0.067   0.090
    1  UNL  C13   26   1.479  -0.684   0.315
    1  UNL  C14   27   0.987  -0.542  -0.292
    1  UNL  C15   28   1.277  -0.099   0.419
    1  UNL  C16   29   1.163  -0.004   0.455
    1  UNL  C17   30   1.412  -0.028   0.428
    1  UNL  C18   31   1.228  -0.573   0.405
    1  UNL  C19   32   1.283  -0.489   0.520
    1  UNL  C20   33   1.074  -0.567   0.404
    1  UNL  C21   34   1.010  -0.643   0.289
    1  UNL  C22   35   1.009   0.138  -0.047
    1  UNL  C23   36   0.980   0.111  -0.195
    1  UNL  C24   37   0.900   0.230   0.011
    1  UNL  C25   38   0.759   0.194  -0.035
    1  UNL  C26   39   1.421  -0.538  -0.156
    1  UNL  C27   40   1.317  -0.572  -0.262
    1  UNL  C28   41   1.491  -0.406  -0.189
    1  UNL  C29   42   0.759  -0.302  -0.213
    1  UNL  C30   43   0.684  -0.170  -0.198
    1  UNL  C31   44   0.687  -0.414  -0.138
    1  UNL  C32   45   0.942  -0.777  -0.122
    1  UNL  C33   46   0.790  -0.761  -0.132
    1  UNL  C34   47   0.999  -0.816  -0.260
    1  UNL  C35   48   1.060  -0.955  -0.264
    1  UNL    H   49   0.931   0.006   0.089
    1  UNL   H1   50   1.208  -0.531   0.202
    1  UNL   H2   51   0.960  -0.635   0.030
    1  UNL   H3   52   1.343  -0.130   0.224
    1  UNL   H4   53   0.970  -0.282  -0.248
    1  UNL   H5   54   1.370  -0.436   0.031
    1  UNL   H6   55   1.240   0.135   0.009
    1  UNL   H7   56   1.336  -0.001   0.063
    1  UNL   H8   57   1.287   0.122   0.176
    1  UNL   H9   58   1.552  -0.741   0.262
    1  UNL  H10   59   1.416  -0.750   0.372
    1  UNL  H11   60   1.527  -0.615   0.381
    1  UNL  H12   61   0.963  -0.449  -0.338
    1  UNL  H13   62   0.921  -0.618  -0.327
    1  UNL  H14   63   1.088  -0.569  -0.316
    1  UNL  H15   64   1.276  -0.180   0.489
    1  UNL  H16   65   1.162   0.078   0.386
    1  UNL  H17   66   1.178   0.034   0.554
    1  UNL  H18   67   1.070  -0.055   0.450
    1  UNL  H19   68   1.414   0.053   0.359
    1  UNL  H20   69   1.490  -0.098   0.405
    1  UNL  H21   70   1.426   0.009   0.528
    1  UNL  H22   71   1.256  -0.676   0.417
    1  UNL  H23   72   1.255  -0.387   0.507
    1  UNL  H24   73   1.389  -0.497   0.522
    1  UNL  H25   74   1.243  -0.526   0.613
    1  UNL  H26   75   1.044  -0.465   0.398
    1  UNL  H27   76   1.040  -0.614   0.495
    1  UNL  H28   77   1.041  -0.599   0.196
    1  UNL  H29   78   0.904  -0.637   0.297
    1  UNL  H30   79   1.041  -0.745   0.292
    1  UNL  H31   80   1.102   0.189  -0.036
    1  UNL  H32   81   0.886   0.060  -0.205
    1  UNL  H33   82   1.058   0.050  -0.236
    1  UNL  H34   83   0.976   0.204  -0.248
    1  UNL  H35   84   0.921   0.331  -0.019
    1  UNL  H36   85   0.902   0.218   0.117
    1  UNL  H37   86   0.753   0.205  -0.141
    1  UNL  H38   87   0.688   0.260   0.012
    1  UNL  H39   88   0.737   0.093  -0.008
    1  UNL  H40   89   1.495  -0.615  -0.155
    1  UNL  H41   90   1.242  -0.495  -0.265
    1  UNL  H42   91   1.271  -0.665  -0.239
    1  UNL  H43   92   1.365  -0.578  -0.358
    1  UNL  H44   93   1.419  -0.327  -0.191
    1  UNL  H45   94   1.538  -0.413  -0.285
    1  UNL  H46   95   1.565  -0.385  -0.115
    1  UNL  H47   96   0.762  -0.327  -0.317
    1  UNL  H48   97   0.681  -0.143  -0.094
    1  UNL  H49   98   0.585  -0.181  -0.235
    1  UNL  H50   99   0.735  -0.093  -0.253
    1  UNL  H51  100   0.684  -0.390  -0.034
    1  UNL  H52  101   0.740  -0.506  -0.152
    1  UNL  H53  102   0.588  -0.423  -0.176
    1  UNL  H54  103   0.966  -0.857  -0.055
    1  UNL  H55  104   0.767  -0.681  -0.200
    1  UNL  H56  105   0.750  -0.738  -0.035
    1  UNL  H57  106   0.746  -0.852  -0.168
    1  UNL  H58  107   1.075  -0.745  -0.287
    1  UNL  H59  108   0.917  -0.815  -0.329
    1  UNL  H60  109   1.142  -0.960  -0.196
    1  UNL  H61  110   1.094  -0.976  -0.363
    1  UNL  H62  111   0.986  -1.027  -0.236
   19.60600    27.15600    19.51200
