; h2ibp_GMX.itp created by acpype (v: 2023.10.27) on Thu Sep  4 07:59:51 2025

[ atomtypes ]
;name   bond_type     mass     charge   ptype   sigma         epsilon       Amb
 ca       ca          0.00000  0.00000   A     3.31521e-01   4.13379e-01 ; 1.86  0.0988
 c3       c3          0.00000  0.00000   A     3.39771e-01   4.51035e-01 ; 1.91  0.1078
 c        c           0.00000  0.00000   A     3.31521e-01   4.13379e-01 ; 1.86  0.0988
 o        o           0.00000  0.00000   A     3.04812e-01   6.12119e-01 ; 1.71  0.1463
 oh       oh          0.00000  0.00000   A     3.24287e-01   3.89112e-01 ; 1.82  0.0930
 ho       ho          0.00000  0.00000   A     5.37925e-02   1.96648e-02 ; 0.30  0.0047
 ha       ha          0.00000  0.00000   A     2.62548e-01   6.73624e-02 ; 1.47  0.0161
 hc       hc          0.00000  0.00000   A     2.60018e-01   8.70272e-02 ; 1.46  0.0208

[ moleculetype ]
;name            nrexcl
 h2ibp            3

[ atoms ]
;   nr  type  resi  res  atom  cgnr     charge      mass       ; qtot   bond_type
     1   ca     1   UNL     C    1    -0.120300     12.01000 ; qtot -0.120
     2   ca     1   UNL    C1    2    -0.116000     12.01000 ; qtot -0.236
     3   ca     1   UNL    C2    3    -0.128500     12.01000 ; qtot -0.365
     4   ca     1   UNL    C3    4    -0.062300     12.01000 ; qtot -0.427
     5   ca     1   UNL    C4    5    -0.128500     12.01000 ; qtot -0.556
     6   ca     1   UNL    C5    6    -0.116000     12.01000 ; qtot -0.672
     7   c3     1   UNL    C6    7    -0.104400     12.01000 ; qtot -0.776
     8   c3     1   UNL    C7    8    -0.083100     12.01000 ; qtot -0.859
     9    c     1   UNL    C8    9     0.627101     12.01000 ; qtot -0.232
    10    o     1   UNL     O   10    -0.492000     16.00000 ; qtot -0.724
    11   oh     1   UNL    O1   11    -0.580100     16.00000 ; qtot -1.304
    12   ho     1   UNL     H   12     0.431000      1.00800 ; qtot -0.873
    13   c3     1   UNL    C9   13    -0.040100     12.01000 ; qtot -0.913
    14   c3     1   UNL   C10   14    -0.065700     12.01000 ; qtot -0.979
    15   c3     1   UNL   C11   15    -0.091600     12.01000 ; qtot -1.070
    16   c3     1   UNL   C12   16    -0.091600     12.01000 ; qtot -1.162
    17   ha     1   UNL    H1   17     0.138000      1.00800 ; qtot -1.024
    18   ha     1   UNL    H2   18     0.138000      1.00800 ; qtot -0.886
    19   ha     1   UNL    H3   19     0.138000      1.00800 ; qtot -0.748
    20   ha     1   UNL    H4   20     0.138000      1.00800 ; qtot -0.610
    21   hc     1   UNL    H5   21     0.080700      1.00800 ; qtot -0.529
    22   hc     1   UNL    H6   22     0.052033      1.00800 ; qtot -0.477
    23   hc     1   UNL    H7   23     0.052033      1.00800 ; qtot -0.425
    24   hc     1   UNL    H8   24     0.052033      1.00800 ; qtot -0.373
    25   hc     1   UNL    H9   25     0.053700      1.00800 ; qtot -0.320
    26   hc     1   UNL   H10   26     0.053700      1.00800 ; qtot -0.266
    27   hc     1   UNL   H11   27     0.054700      1.00800 ; qtot -0.211
    28   hc     1   UNL   H12   28     0.035200      1.00800 ; qtot -0.176
    29   hc     1   UNL   H13   29     0.035200      1.00800 ; qtot -0.141
    30   hc     1   UNL   H14   30     0.035200      1.00800 ; qtot -0.106
    31   hc     1   UNL   H15   31     0.035200      1.00800 ; qtot -0.070
    32   hc     1   UNL   H16   32     0.035200      1.00800 ; qtot -0.035
    33   hc     1   UNL   H17   33     0.035200      1.00800 ; qtot 0.000

[ bonds ]
;   ai     aj funct   r             k
     1      2   1    1.3986e-01    2.9644e+05 ;      C - C1    
     1      6   1    1.3986e-01    2.9644e+05 ;      C - C5    
     1      7   1    1.5147e-01    2.0410e+05 ;      C - C6    
     2      3   1    1.3986e-01    2.9644e+05 ;     C1 - C2    
     2     17   1    1.0860e-01    3.0183e+05 ;     C1 - H1    
     3      4   1    1.3986e-01    2.9644e+05 ;     C2 - C3    
     3     18   1    1.0860e-01    3.0183e+05 ;     C2 - H2    
     4      5   1    1.3986e-01    2.9644e+05 ;     C3 - C4    
     4     13   1    1.5147e-01    2.0410e+05 ;     C3 - C9    
     5      6   1    1.3986e-01    2.9644e+05 ;     C4 - C5    
     5     19   1    1.0860e-01    3.0183e+05 ;     C4 - H3    
     6     20   1    1.0860e-01    3.0183e+05 ;     C5 - H4    
     7      8   1    1.5354e-01    1.9154e+05 ;     C6 - C7    
     7      9   1    1.5270e-01    1.9652e+05 ;     C6 - C8    
     7     21   1    1.0962e-01    2.8891e+05 ;     C6 - H5    
     8     22   1    1.0962e-01    2.8891e+05 ;     C7 - H6    
     8     23   1    1.0962e-01    2.8891e+05 ;     C7 - H7    
     8     24   1    1.0962e-01    2.8891e+05 ;     C7 - H8    
     9     10   1    1.2190e-01    4.9421e+05 ;     C8 - O     
     9     11   1    1.3556e-01    3.0064e+05 ;     C8 - O1    
    11     12   1    9.7250e-02    4.4811e+05 ;     O1 - H     
    13     14   1    1.5354e-01    1.9154e+05 ;     C9 - C10   
    13     25   1    1.0962e-01    2.8891e+05 ;     C9 - H9    
    13     26   1    1.0962e-01    2.8891e+05 ;     C9 - H10   
    14     15   1    1.5354e-01    1.9154e+05 ;    C10 - C11   
    14     16   1    1.5354e-01    1.9154e+05 ;    C10 - C12   
    14     27   1    1.0962e-01    2.8891e+05 ;    C10 - H11   
    15     28   1    1.0962e-01    2.8891e+05 ;    C11 - H12   
    15     29   1    1.0962e-01    2.8891e+05 ;    C11 - H13   
    15     30   1    1.0962e-01    2.8891e+05 ;    C11 - H14   
    16     31   1    1.0962e-01    2.8891e+05 ;    C12 - H15   
    16     32   1    1.0962e-01    2.8891e+05 ;    C12 - H16   
    16     33   1    1.0962e-01    2.8891e+05 ;    C12 - H17   

[ pairs ]
;   ai     aj    funct
     1      4      1 ;      C - C3    
     1     10      1 ;      C - O     
     1     11      1 ;      C - O1    
     1     18      1 ;      C - H2    
     1     19      1 ;      C - H3    
     1     22      1 ;      C - H6    
     1     23      1 ;      C - H7    
     1     24      1 ;      C - H8    
     2      5      1 ;     C1 - C4    
     2      8      1 ;     C1 - C7    
     2      9      1 ;     C1 - C8    
     2     13      1 ;     C1 - C9    
     2     20      1 ;     C1 - H4    
     2     21      1 ;     C1 - H5    
     3     14      1 ;     C2 - C10   
     3     19      1 ;     C2 - H3    
     3     25      1 ;     C2 - H9    
     3     26      1 ;     C2 - H10   
     4     15      1 ;     C3 - C11   
     4     16      1 ;     C3 - C12   
     4     17      1 ;     C3 - H1    
     4     20      1 ;     C3 - H4    
     4     27      1 ;     C3 - H11   
     5     14      1 ;     C4 - C10   
     5     18      1 ;     C4 - H2    
     5     25      1 ;     C4 - H9    
     5     26      1 ;     C4 - H10   
     6      3      1 ;     C5 - C2    
     6      8      1 ;     C5 - C7    
     6      9      1 ;     C5 - C8    
     6     13      1 ;     C5 - C9    
     6     17      1 ;     C5 - H1    
     6     21      1 ;     C5 - H5    
     7      3      1 ;     C6 - C2    
     7      5      1 ;     C6 - C4    
     7     12      1 ;     C6 - H     
     7     17      1 ;     C6 - H1    
     7     20      1 ;     C6 - H4    
     8     10      1 ;     C7 - O     
     8     11      1 ;     C7 - O1    
     9     22      1 ;     C8 - H6    
     9     23      1 ;     C8 - H7    
     9     24      1 ;     C8 - H8    
    10     12      1 ;      O - H     
    10     21      1 ;      O - H5    
    11     21      1 ;     O1 - H5    
    13     18      1 ;     C9 - H2    
    13     19      1 ;     C9 - H3    
    13     28      1 ;     C9 - H12   
    13     29      1 ;     C9 - H13   
    13     30      1 ;     C9 - H14   
    13     31      1 ;     C9 - H15   
    13     32      1 ;     C9 - H16   
    13     33      1 ;     C9 - H17   
    15     25      1 ;    C11 - H9    
    15     26      1 ;    C11 - H10   
    15     31      1 ;    C11 - H15   
    15     32      1 ;    C11 - H16   
    15     33      1 ;    C11 - H17   
    16     25      1 ;    C12 - H9    
    16     26      1 ;    C12 - H10   
    16     28      1 ;    C12 - H12   
    16     29      1 ;    C12 - H13   
    16     30      1 ;    C12 - H14   
    17     18      1 ;     H1 - H2    
    19     20      1 ;     H3 - H4    
    21     22      1 ;     H5 - H6    
    21     23      1 ;     H5 - H7    
    21     24      1 ;     H5 - H8    
    25     27      1 ;     H9 - H11   
    26     27      1 ;    H10 - H11   
    27     28      1 ;    H11 - H12   
    27     29      1 ;    H11 - H13   
    27     30      1 ;    H11 - H14   
    27     31      1 ;    H11 - H15   
    27     32      1 ;    H11 - H16   
    27     33      1 ;    H11 - H17   

[ angles ]
;   ai     aj     ak    funct   theta         cth
     1      2      3      1    1.2002e+02    5.3279e+02 ;      C - C1     - C2    
     1      2     17      1    1.1988e+02    3.7572e+02 ;      C - C1     - H1    
     1      6      5      1    1.2002e+02    5.3279e+02 ;      C - C5     - C4    
     1      6     20      1    1.1988e+02    3.7572e+02 ;      C - C5     - H4    
     1      7      8      1    1.1242e+02    5.0484e+02 ;      C - C6     - C7    
     1      7      9      1    1.1116e+02    5.0911e+02 ;      C - C6     - C8    
     1      7     21      1    1.1063e+02    3.6493e+02 ;      C - C6     - H5    
     2      1      6      1    1.2002e+02    5.3279e+02 ;     C1 - C      - C5    
     2      1      7      1    1.2083e+02    5.0827e+02 ;     C1 - C      - C6    
     2      3      4      1    1.2002e+02    5.3279e+02 ;     C1 - C2     - C3    
     2      3     18      1    1.1988e+02    3.7572e+02 ;     C1 - C2     - H2    
     3      2     17      1    1.1988e+02    3.7572e+02 ;     C2 - C1     - H1    
     3      4      5      1    1.2002e+02    5.3279e+02 ;     C2 - C3     - C4    
     3      4     13      1    1.2083e+02    5.0827e+02 ;     C2 - C3     - C9    
     4      3     18      1    1.1988e+02    3.7572e+02 ;     C3 - C2     - H2    
     4      5      6      1    1.2002e+02    5.3279e+02 ;     C3 - C4     - C5    
     4      5     19      1    1.1988e+02    3.7572e+02 ;     C3 - C4     - H3    
     4     13     14      1    1.1242e+02    5.0484e+02 ;     C3 - C9     - C10   
     4     13     25      1    1.1063e+02    3.6493e+02 ;     C3 - C9     - H9    
     4     13     26      1    1.1063e+02    3.6493e+02 ;     C3 - C9     - H10   
     5      4     13      1    1.2083e+02    5.0827e+02 ;     C4 - C3     - C9    
     5      6     20      1    1.1988e+02    3.7572e+02 ;     C4 - C5     - H4    
     6      1      7      1    1.2083e+02    5.0827e+02 ;     C5 - C      - C6    
     6      5     19      1    1.1988e+02    3.7572e+02 ;     C5 - C4     - H3    
     7      8     22      1    1.0968e+02    3.6208e+02 ;     C6 - C7     - H6    
     7      8     23      1    1.0968e+02    3.6208e+02 ;     C6 - C7     - H7    
     7      8     24      1    1.0968e+02    3.6208e+02 ;     C6 - C7     - H8    
     7      9     10      1    1.2290e+02    6.3973e+02 ;     C6 - C8     - O     
     7      9     11      1    1.1274e+02    6.4785e+02 ;     C6 - C8     - O1    
     8      7      9      1    1.1143e+02    5.0509e+02 ;     C7 - C6     - C8    
     8      7     21      1    1.0968e+02    3.6208e+02 ;     C7 - C6     - H5    
     9      7     21      1    1.0895e+02    3.6510e+02 ;     C8 - C6     - H5    
     9     11     12      1    1.0654e+02    5.7287e+02 ;     C8 - O1     - H     
    10      9     11      1    1.2209e+02    8.5379e+02 ;      O - C8     - O1    
    13     14     15      1    1.1263e+02    5.0099e+02 ;     C9 - C10    - C11   
    13     14     16      1    1.1263e+02    5.0099e+02 ;     C9 - C10    - C12   
    13     14     27      1    1.0968e+02    3.6208e+02 ;     C9 - C10    - H11   
    14     13     25      1    1.0968e+02    3.6208e+02 ;    C10 - C9     - H9    
    14     13     26      1    1.0968e+02    3.6208e+02 ;    C10 - C9     - H10   
    14     15     28      1    1.0968e+02    3.6208e+02 ;    C10 - C11    - H12   
    14     15     29      1    1.0968e+02    3.6208e+02 ;    C10 - C11    - H13   
    14     15     30      1    1.0968e+02    3.6208e+02 ;    C10 - C11    - H14   
    14     16     31      1    1.0968e+02    3.6208e+02 ;    C10 - C12    - H15   
    14     16     32      1    1.0968e+02    3.6208e+02 ;    C10 - C12    - H16   
    14     16     33      1    1.0968e+02    3.6208e+02 ;    C10 - C12    - H17   
    15     14     16      1    1.1263e+02    5.0099e+02 ;    C11 - C10    - C12   
    15     14     27      1    1.0968e+02    3.6208e+02 ;    C11 - C10    - H11   
    16     14     27      1    1.0968e+02    3.6208e+02 ;    C12 - C10    - H11   
    22      8     23      1    1.0773e+02    2.9957e+02 ;     H6 - C7     - H7    
    22      8     24      1    1.0773e+02    2.9957e+02 ;     H6 - C7     - H8    
    23      8     24      1    1.0773e+02    2.9957e+02 ;     H7 - C7     - H8    
    25     13     26      1    1.0773e+02    2.9957e+02 ;     H9 - C9     - H10   
    28     15     29      1    1.0773e+02    2.9957e+02 ;    H12 - C11    - H13   
    28     15     30      1    1.0773e+02    2.9957e+02 ;    H12 - C11    - H14   
    29     15     30      1    1.0773e+02    2.9957e+02 ;    H13 - C11    - H14   
    31     16     32      1    1.0773e+02    2.9957e+02 ;    H15 - C12    - H16   
    31     16     33      1    1.0773e+02    2.9957e+02 ;    H15 - C12    - H17   
    32     16     33      1    1.0773e+02    2.9957e+02 ;    H16 - C12    - H17   

[ dihedrals ] ; propers
; for gromacs 4.5 or higher, using funct 9
;    i      j      k      l   func   phase     kd      pn
     1      2      3      4      9   180.00  15.16700   2 ;      C-    C1-    C2-    C3
     1      2      3     18      9   180.00  15.16700   2 ;      C-    C1-    C2-    H2
     1      6      5      4      9   180.00  15.16700   2 ;      C-    C5-    C4-    C3
     1      6      5     19      9   180.00  15.16700   2 ;      C-    C5-    C4-    H3
     1      7      8     22      9     0.00   0.65084   3 ;      C-    C6-    C7-    H6
     1      7      8     23      9     0.00   0.65084   3 ;      C-    C6-    C7-    H7
     1      7      8     24      9     0.00   0.65084   3 ;      C-    C6-    C7-    H8
     1      7      9     10      9   180.00   0.00000   2 ;      C-    C6-    C8-     O
     1      7      9     11      9   180.00   0.00000   2 ;      C-    C6-    C8-    O1
     2      1      6      5      9   180.00  15.16700   2 ;     C1-     C-    C5-    C4
     2      1      6     20      9   180.00  15.16700   2 ;     C1-     C-    C5-    H4
     2      1      7      8      9   180.00   1.00416   2 ;     C1-     C-    C6-    C7
     2      1      7      9      9     0.00   0.00000   0 ;     C1-     C-    C6-    C8
     2      1      7     21      9     0.00   0.00000   0 ;     C1-     C-    C6-    H5
     2      3      4      5      9   180.00  15.16700   2 ;     C1-    C2-    C3-    C4
     2      3      4     13      9   180.00  15.16700   2 ;     C1-    C2-    C3-    C9
     3      4      5      6      9   180.00  15.16700   2 ;     C2-    C3-    C4-    C5
     3      4      5     19      9   180.00  15.16700   2 ;     C2-    C3-    C4-    H3
     3      4     13     14      9   180.00   1.00416   2 ;     C2-    C3-    C9-   C10
     3      4     13     25      9     0.00   0.00000   0 ;     C2-    C3-    C9-    H9
     3      4     13     26      9     0.00   0.00000   0 ;     C2-    C3-    C9-   H10
     4      3      2     17      9   180.00  15.16700   2 ;     C3-    C2-    C1-    H1
     4      5      6     20      9   180.00  15.16700   2 ;     C3-    C4-    C5-    H4
     4     13     14     15      9     0.00   0.65084   3 ;     C3-    C9-   C10-   C11
     4     13     14     16      9     0.00   0.65084   3 ;     C3-    C9-   C10-   C12
     4     13     14     27      9     0.00   0.65084   3 ;     C3-    C9-   C10-   H11
     5      4      3     18      9   180.00  15.16700   2 ;     C4-    C3-    C2-    H2
     5      4     13     14      9   180.00   1.00416   2 ;     C4-    C3-    C9-   C10
     5      4     13     25      9     0.00   0.00000   0 ;     C4-    C3-    C9-    H9
     5      4     13     26      9     0.00   0.00000   0 ;     C4-    C3-    C9-   H10
     6      1      2      3      9   180.00  15.16700   2 ;     C5-     C-    C1-    C2
     6      1      2     17      9   180.00  15.16700   2 ;     C5-     C-    C1-    H1
     6      1      7      8      9   180.00   1.00416   2 ;     C5-     C-    C6-    C7
     6      1      7      9      9     0.00   0.00000   0 ;     C5-     C-    C6-    C8
     6      1      7     21      9     0.00   0.00000   0 ;     C5-     C-    C6-    H5
     6      5      4     13      9   180.00  15.16700   2 ;     C5-    C4-    C3-    C9
     7      1      2      3      9   180.00  15.16700   2 ;     C6-     C-    C1-    C2
     7      1      2     17      9   180.00  15.16700   2 ;     C6-     C-    C1-    H1
     7      1      6      5      9   180.00  15.16700   2 ;     C6-     C-    C5-    C4
     7      1      6     20      9   180.00  15.16700   2 ;     C6-     C-    C5-    H4
     7      9     11     12      9   180.00   7.53120   2 ;     C6-    C8-    O1-     H
     8      7      9     10      9     0.00   2.84512   1 ;     C7-    C6-    C8-     O
     8      7      9     10      9   180.00   0.83680   2 ;     C7-    C6-    C8-     O
     8      7      9     10      9   180.00   1.84096   3 ;     C7-    C6-    C8-     O
     8      7      9     11      9   180.00   0.00000   2 ;     C7-    C6-    C8-    O1
     9      7      8     22      9     0.00   0.65084   3 ;     C8-    C6-    C7-    H6
     9      7      8     23      9     0.00   0.65084   3 ;     C8-    C6-    C7-    H7
     9      7      8     24      9     0.00   0.65084   3 ;     C8-    C6-    C7-    H8
    10      9      7     21      9     0.00  16.86152   1 ;      O-    C8-    C6-    H5
    10      9      7     21      9   180.00  15.31344   2 ;      O-    C8-    C6-    H5
    10      9     11     12      9     0.00   7.94960   1 ;      O-    C8-    O1-     H
    10      9     11     12      9   180.00   9.62320   2 ;      O-    C8-    O1-     H
    11      9      7     21      9   180.00   0.00000   2 ;     O1-    C8-    C6-    H5
    13      4      3     18      9   180.00  15.16700   2 ;     C9-    C3-    C2-    H2
    13      4      5     19      9   180.00  15.16700   2 ;     C9-    C3-    C4-    H3
    13     14     15     28      9     0.00   0.54392   3 ;     C9-   C10-   C11-   H12
    13     14     15     29      9     0.00   0.54392   3 ;     C9-   C10-   C11-   H13
    13     14     15     30      9     0.00   0.54392   3 ;     C9-   C10-   C11-   H14
    13     14     16     31      9     0.00   0.54392   3 ;     C9-   C10-   C12-   H15
    13     14     16     32      9     0.00   0.54392   3 ;     C9-   C10-   C12-   H16
    13     14     16     33      9     0.00   0.54392   3 ;     C9-   C10-   C12-   H17
    15     14     13     25      9     0.00   0.54392   3 ;    C11-   C10-    C9-    H9
    15     14     13     26      9     0.00   0.54392   3 ;    C11-   C10-    C9-   H10
    15     14     16     31      9     0.00   0.54392   3 ;    C11-   C10-   C12-   H15
    15     14     16     32      9     0.00   0.54392   3 ;    C11-   C10-   C12-   H16
    15     14     16     33      9     0.00   0.54392   3 ;    C11-   C10-   C12-   H17
    16     14     13     25      9     0.00   0.54392   3 ;    C12-   C10-    C9-    H9
    16     14     13     26      9     0.00   0.54392   3 ;    C12-   C10-    C9-   H10
    16     14     15     28      9     0.00   0.54392   3 ;    C12-   C10-   C11-   H12
    16     14     15     29      9     0.00   0.54392   3 ;    C12-   C10-   C11-   H13
    16     14     15     30      9     0.00   0.54392   3 ;    C12-   C10-   C11-   H14
    17      2      3     18      9   180.00  15.16700   2 ;     H1-    C1-    C2-    H2
    19      5      6     20      9   180.00  15.16700   2 ;     H3-    C4-    C5-    H4
    21      7      8     22      9     0.00   0.50208   3 ;     H5-    C6-    C7-    H6
    21      7      8     23      9     0.00   0.50208   3 ;     H5-    C6-    C7-    H7
    21      7      8     24      9     0.00   0.50208   3 ;     H5-    C6-    C7-    H8
    25     13     14     27      9     0.00   0.50208   3 ;     H9-    C9-   C10-   H11
    26     13     14     27      9     0.00   0.50208   3 ;    H10-    C9-   C10-   H11
    27     14     15     28      9     0.00   0.50208   3 ;    H11-   C10-   C11-   H12
    27     14     15     29      9     0.00   0.50208   3 ;    H11-   C10-   C11-   H13
    27     14     15     30      9     0.00   0.50208   3 ;    H11-   C10-   C11-   H14
    27     14     16     31      9     0.00   0.50208   3 ;    H11-   C10-   C12-   H15
    27     14     16     32      9     0.00   0.50208   3 ;    H11-   C10-   C12-   H16
    27     14     16     33      9     0.00   0.50208   3 ;    H11-   C10-   C12-   H17

[ dihedrals ] ; impropers
; treated as propers in GROMACS to use correct AMBER analytical function
;    i      j      k      l   func   phase     kd      pn
     1      3      2     17      4   180.00   4.60240   2 ;      C-    C2-    C1-    H1
     1      5      6     20      4   180.00   4.60240   2 ;      C-    C4-    C5-    H4
     2      4      3     18      4   180.00   4.60240   2 ;     C1-    C3-    C2-    H2
     4      6      5     19      4   180.00   4.60240   2 ;     C3-    C5-    C4-    H3
     7      1      6      2      4   180.00   4.60240   2 ;     C6-     C-    C5-    C1
     7     10      9     11      4   180.00   4.60240   2 ;     C6-     O-    C8-    O1
    13      3      4      5      4   180.00   4.60240   2 ;     C9-    C2-    C3-    C4
