IBP-Site2_1h.pdb
    33
   7.2540000   3.4480000 -14.0160000   8.1530000   2.4800000 -14.4220000
   9.4640000   2.5310000 -13.9910000   9.8770000   3.5500000 -13.1540000
   8.9770000   4.5140000 -12.7440000   7.6670000   4.4660000 -13.1790000
   5.8240000   3.3940000 -14.4870000   5.1360000   2.1630000 -13.8930000
   5.7930000   3.3100000 -15.9910000   5.3480000   2.3250000 -16.5320000
   6.2610000   4.3280000 -16.7300000   7.2050000   4.5400000 -16.7190000
  11.3080000   3.6050000 -12.6840000  11.7540000   2.2110000 -12.2420000
  12.9630000   1.7740000 -13.0720000  12.1370000   2.2430000 -10.7620000
   7.8450000   1.7190000 -15.0470000  10.1350000   1.8080000 -14.2940000
   9.2830000   5.2700000 -12.1120000   6.9970000   5.1910000 -12.8790000
   5.3110000   4.2770000 -14.1680000   5.6490000   1.2790000 -14.2110000
   4.1200000   2.1260000 -14.2270000   5.1580000   2.2230000 -12.8250000
  11.3870000   4.2830000 -11.8600000  11.9330000   3.9420000 -13.4840000
  10.9520000   1.5180000 -12.3880000  13.7650000   2.4670000 -12.9260000
  12.6950000   1.7510000 -14.1080000  13.2740000   0.7980000 -12.7630000
  12.9390000   2.9360000 -10.6160000  12.4480000   1.2670000 -10.4530000
  11.2920000   2.5480000 -10.1810000
