h2ea_GMX.gro created by acpype (v: 2023.10.27) on Thu Sep  4 07:59:43 2025
 111
    1  UNL    O    1   1.143  -0.013  -2.314
    1  UNL   O1    2   0.682  -0.135  -2.489
    1  UNL   O2    3   0.849   0.263  -2.270
    1  UNL   O3    4   1.034  -0.176  -2.484
    1  UNL   O4    5   1.025   0.451  -2.041
    1  UNL   O5    6   0.829   0.080  -2.529
    1  UNL   O6    7   1.226   0.062  -2.113
    1  UNL   O7    8   0.705  -0.132  -2.260
    1  UNL   O8    9   0.867   0.489  -2.306
    1  UNL    N   10   0.931  -0.291  -2.312
    1  UNL   N1   11   1.152   0.321  -2.185
    1  UNL   N2   12   0.668   0.234  -2.461
    1  UNL    C   13   0.808  -0.309  -2.392
    1  UNL   C1   14   1.163   0.218  -2.290
    1  UNL   C2   15   0.763   0.347  -2.474
    1  UNL   C3   16   1.132  -0.150  -2.268
    1  UNL   C4   17   0.611  -0.010  -2.487
    1  UNL   C5   18   0.910   0.265  -2.140
    1  UNL   C6   19   1.030  -0.208  -2.365
    1  UNL   C7   20   1.033   0.355  -2.118
    1  UNL   C8   21   0.713   0.105  -2.494
    1  UNL   C9   22   1.183   0.082  -2.225
    1  UNL  C10   23   0.726  -0.183  -2.369
    1  UNL  C11   24   0.829   0.378  -2.340
    1  UNL  C12   25   0.936  -0.348  -2.177
    1  UNL  C13   26   1.274   0.392  -2.147
    1  UNL  C14   27   0.536   0.265  -2.407
    1  UNL  C15   28   1.266  -0.220  -2.282
    1  UNL  C16   29   1.326  -0.197  -2.421
    1  UNL  C17   30   1.251  -0.370  -2.255
    1  UNL  C18   31   1.273   0.243  -2.394
    1  UNL  C19   32   1.389   0.147  -2.370
    1  UNL  C20   33   1.221   0.228  -2.538
    1  UNL  C21   34   1.117   0.332  -2.576
    1  UNL  C22   35   0.724  -0.432  -2.361
    1  UNL  C23   36   0.581  -0.410  -2.411
    1  UNL  C24   37   0.781  -0.561  -2.422
    1  UNL  C25   38   0.721  -0.688  -2.364
    1  UNL  C26   39   0.800   0.296  -2.038
    1  UNL  C27   40   0.666   0.240  -2.086
    1  UNL  C28   41   0.836   0.239  -1.901
    1  UNL  C29   42   0.521  -0.007  -2.610
    1  UNL  C30   43   0.435  -0.134  -2.616
    1  UNL  C31   44   0.604   0.007  -2.738
    1  UNL  C32   45   0.700   0.472  -2.535
    1  UNL  C33   46   0.655   0.568  -2.424
    1  UNL  C34   47   0.795   0.545  -2.632
    1  UNL  C35   48   0.774   0.696  -2.635
    1  UNL    H   49   0.838  -0.326  -2.493
    1  UNL   H1   50   1.071   0.223  -2.345
    1  UNL   H2   51   0.839   0.317  -2.543
    1  UNL   H3   52   1.104  -0.160  -2.166
    1  UNL   H4   53   0.552   0.001  -2.398
    1  UNL   H5   54   0.953   0.168  -2.127
    1  UNL   H6   55   0.849  -0.408  -2.159
    1  UNL   H7   56   0.940  -0.269  -2.105
    1  UNL   H8   57   1.024  -0.409  -2.167
    1  UNL   H9   58   1.356   0.356  -2.205
    1  UNL  H10   59   1.294   0.376  -2.043
    1  UNL  H11   60   1.262   0.497  -2.164
    1  UNL  H12   61   0.477   0.176  -2.403
    1  UNL  H13   62   0.487   0.337  -2.470
    1  UNL  H14   63   0.546   0.306  -2.309
    1  UNL  H15   64   1.333  -0.179  -2.209
    1  UNL  H16   65   1.260  -0.237  -2.495
    1  UNL  H17   66   1.421  -0.245  -2.428
    1  UNL  H18   67   1.337  -0.092  -2.437
    1  UNL  H19   68   1.184  -0.413  -2.327
    1  UNL  H20   69   1.212  -0.385  -2.157
    1  UNL  H21   70   1.347  -0.417  -2.263
    1  UNL  H22   71   1.306   0.344  -2.382
    1  UNL  H23   72   1.355   0.046  -2.382
    1  UNL  H24   73   1.427   0.160  -2.271
    1  UNL  H25   74   1.467   0.167  -2.440
    1  UNL  H26   75   1.178   0.131  -2.549
    1  UNL  H27   76   1.305   0.243  -2.603
    1  UNL  H28   77   1.031   0.320  -2.514
    1  UNL  H29   78   1.088   0.318  -2.679
    1  UNL  H30   79   1.157   0.430  -2.564
    1  UNL  H31   80   0.724  -0.444  -2.254
    1  UNL  H32   81   0.581  -0.398  -2.517
    1  UNL  H33   82   0.539  -0.323  -2.365
    1  UNL  H34   83   0.521  -0.495  -2.385
    1  UNL  H35   84   0.887  -0.562  -2.404
    1  UNL  H36   85   0.758  -0.559  -2.526
    1  UNL  H37   86   0.743  -0.693  -2.260
    1  UNL  H38   87   0.763  -0.773  -2.414
    1  UNL  H39   88   0.615  -0.687  -2.379
    1  UNL  H40   89   0.791   0.402  -2.029
    1  UNL  H41   90   0.673   0.133  -2.095
    1  UNL  H42   91   0.641   0.282  -2.180
    1  UNL  H43   92   0.590   0.264  -2.014
    1  UNL  H44   93   0.846   0.133  -1.908
    1  UNL  H45   94   0.760   0.263  -1.831
    1  UNL  H46   95   0.929   0.281  -1.869
    1  UNL  H47   96   0.456   0.077  -2.602
    1  UNL  H48   97   0.498  -0.220  -2.624
    1  UNL  H49   98   0.370  -0.129  -2.702
    1  UNL  H50   99   0.376  -0.141  -2.527
    1  UNL  H51  100   0.669  -0.077  -2.747
    1  UNL  H52  101   0.662   0.097  -2.732
    1  UNL  H53  102   0.539   0.011  -2.822
    1  UNL  H54  103   0.615   0.440  -2.592
    1  UNL  H55  104   0.741   0.600  -2.368
    1  UNL  H56  105   0.586   0.518  -2.359
    1  UNL  H57  106   0.608   0.654  -2.468
    1  UNL  H58  107   0.779   0.507  -2.731
    1  UNL  H59  108   0.894   0.528  -2.597
    1  UNL  H60  109   0.675   0.718  -2.670
    1  UNL  H61  110   0.845   0.740  -2.702
    1  UNL  H62  111   0.787   0.736  -2.537
   21.93400    30.26600    19.82800
