; h1rwf_GMX.top created by acpype (v: 2023.10.27) on Thu Sep  4 07:59:29 2025

[ defaults ]
; nbfunc        comb-rule       gen-pairs       fudgeLJ fudgeQQ
1               2               yes             0.5     0.8333333333

; Include h1rwf_GMX.itp topology
#include "h1rwf_GMX.itp"

; Ligand position restraints
#ifdef POSRES_LIG
#include "posre_h1rwf.itp"
#endif

[ system ]
 h1rwf

[ molecules ]
; Compound        nmols
 h1rwf            1     
