; h1rwf_GMX_OPLS.top created by acpype (v: 2023.10.27) on Thu Sep  4 07:59:29 2025

; Include forcefield parameters
#include "ffoplsaa.itp"

; Include h1rwf_GMX.itp topology
#include "h1rwf_GMX.itp"

; Ligand position restraints
#ifdef POSRES_LIG
#include "posre_h1rwf.itp"
#endif

[ system ]
 h1rwf

[ molecules ]
; Compound        nmols
 h1rwf            1     
