; h1eb_GMX.top created by acpype (v: 2023.10.27) on Thu Sep  4 04:41:44 2025

[ defaults ]
; nbfunc        comb-rule       gen-pairs       fudgeLJ fudgeQQ
1               2               yes             0.5     0.8333333333

; Include h1eb_GMX.itp topology
#include "h1eb_GMX.itp"

; Ligand position restraints
#ifdef POSRES_LIG
#include "posre_h1eb.itp"
#endif

[ system ]
 h1eb

[ molecules ]
; Compound        nmols
 h1eb             1     
