h1eb_GMX.gro created by acpype (v: 2023.10.27) on Thu Sep  4 04:41:44 2025
 102
    1  UNL    O    1   1.310  -0.379   0.373
    1  UNL   O1    2   0.979  -0.333  -0.022
    1  UNL   O2    3   1.237   0.049   0.083
    1  UNL   O3    4   1.312  -0.375   0.114
    1  UNL   O4    5   1.474  -0.139   0.185
    1  UNL   O5    6   0.968  -0.066  -0.205
    1  UNL   O6    7   1.134  -0.230   0.392
    1  UNL   O7    8   1.069  -0.343  -0.233
    1  UNL   O8    9   1.212   0.273   0.036
    1  UNL    N   10   1.135  -0.519   0.080
    1  UNL   N1   11   1.342  -0.042   0.350
    1  UNL   N2   12   0.983  -0.015   0.022
    1  UNL    C   13   1.145  -0.500  -0.067
    1  UNL   C1   14   1.362  -0.158   0.438
    1  UNL   C2   15   1.026   0.125  -0.005
    1  UNL   C3   16   1.225  -0.478   0.311
    1  UNL   C4   17   0.882  -0.231  -0.053
    1  UNL   C5   18   1.372   0.070   0.127
    1  UNL   C6   19   1.228  -0.452   0.161
    1  UNL   C7   20   1.401  -0.046   0.223
    1  UNL   C8   21   0.949  -0.097  -0.087
    1  UNL   C9   22   1.253  -0.258   0.400
    1  UNL  C10   23   1.062  -0.382  -0.117
    1  UNL  C11   24   1.167   0.159   0.041
    1  UNL  C12   25   1.026  -0.603   0.130
    1  UNL  C13   26   1.260   0.069   0.400
    1  UNL  C14   27   0.962  -0.054   0.161
    1  UNL  C15   28   1.286  -0.614   0.344
    1  UNL  C16   29   1.426  -0.598   0.403
    1  UNL  C17   30   1.196  -0.692   0.439
    1  UNL  C18   31   1.358  -0.130   0.588
    1  UNL  C19   32   1.364  -0.261   0.667
    1  UNL  C20   33   1.472  -0.037   0.629
    1  UNL  C21   34   1.112  -0.625  -0.148
    1  UNL  C22   35   1.231  -0.666  -0.235
    1  UNL  C23   36   0.988  -0.603  -0.234
    1  UNL  C24   37   1.464   0.067   0.006
    1  UNL  C25   38   1.396  -0.001  -0.113
    1  UNL  C26   39   1.508   0.209  -0.033
    1  UNL  C27   40   0.784  -0.277  -0.161
    1  UNL  C28   41   0.682  -0.168  -0.191
    1  UNL  C29   42   0.714  -0.406  -0.119
    1  UNL  C30   43   0.925   0.225   0.053
    1  UNL  C31   44   0.984   0.294   0.176
    1  UNL  C32   45   0.886   0.327  -0.053
    1  UNL    H   46   1.249  -0.478  -0.083
    1  UNL   H1   47   1.461  -0.195   0.423
    1  UNL   H2   48   1.027   0.133  -0.111
    1  UNL   H3   49   1.124  -0.475   0.346
    1  UNL   H4   50   0.824  -0.214   0.035
    1  UNL   H5   51   1.387   0.164   0.176
    1  UNL   H6   52   0.970  -0.641   0.048
    1  UNL   H7   53   0.962  -0.544   0.192
    1  UNL   H8   54   1.067  -0.684   0.187
    1  UNL   H9   55   1.255   0.146   0.326
    1  UNL  H10   56   1.304   0.109   0.489
    1  UNL  H11   57   1.162   0.034   0.422
    1  UNL  H12   58   0.932  -0.156   0.165
    1  UNL  H13   59   0.886   0.007   0.204
    1  UNL  H14   60   1.053  -0.041   0.216
    1  UNL  H15   61   1.294  -0.669   0.252
    1  UNL  H16   62   1.419  -0.543   0.495
    1  UNL  H17   63   1.488  -0.545   0.334
    1  UNL  H18   64   1.468  -0.695   0.422
    1  UNL  H19   65   1.186  -0.638   0.531
    1  UNL  H20   66   1.239  -0.788   0.458
    1  UNL  H21   67   1.099  -0.705   0.395
    1  UNL  H22   68   1.265  -0.082   0.611
    1  UNL  H23   69   1.457  -0.311   0.646
    1  UNL  H24   70   1.282  -0.324   0.639
    1  UNL  H25   71   1.359  -0.240   0.772
    1  UNL  H26   72   1.565  -0.084   0.607
    1  UNL  H27   73   1.465  -0.017   0.734
    1  UNL  H28   74   1.464   0.055   0.574
    1  UNL  H29   75   1.092  -0.705  -0.079
    1  UNL  H30   76   1.253  -0.588  -0.304
    1  UNL  H31   77   1.207  -0.755  -0.288
    1  UNL  H32   78   1.317  -0.684  -0.172
    1  UNL  H33   79   1.007  -0.524  -0.303
    1  UNL  H34   80   0.906  -0.577  -0.171
    1  UNL  H35   81   0.966  -0.693  -0.287
    1  UNL  H36   82   1.552   0.011   0.031
    1  UNL  H37   83   1.308   0.054  -0.140
    1  UNL  H38   84   1.368  -0.101  -0.085
    1  UNL  H39   85   1.463  -0.004  -0.196
    1  UNL  H40   86   1.421   0.267  -0.058
    1  UNL  H41   87   1.574   0.205  -0.116
    1  UNL  H42   88   1.557   0.254   0.051
    1  UNL  H43   89   0.840  -0.297  -0.251
    1  UNL  H44   90   0.625  -0.147  -0.103
    1  UNL  H45   91   0.616  -0.201  -0.269
    1  UNL  H46   92   0.733  -0.079  -0.223
    1  UNL  H47   93   0.658  -0.389  -0.030
    1  UNL  H48   94   0.787  -0.482  -0.101
    1  UNL  H49   95   0.648  -0.438  -0.197
    1  UNL  H50   96   0.838   0.172   0.083
    1  UNL  H51   97   1.072   0.348   0.148
    1  UNL  H52   98   1.009   0.221   0.250
    1  UNL  H53   99   0.912   0.362   0.216
    1  UNL  H54  100   0.972   0.382  -0.084
    1  UNL  H55  101   0.814   0.395  -0.012
    1  UNL  H56  102   0.843   0.277  -0.137
   19.16200    23.67200    21.51800
