; h1eb_GMX.itp created by acpype (v: 2023.10.27) on Thu Sep  4 04:41:44 2025

[ atomtypes ]
;name   bond_type     mass     charge   ptype   sigma         epsilon       Amb
 os       os          0.00000  0.00000   A     3.15610e-01   3.03758e-01 ; 1.77  0.0726
 o        o           0.00000  0.00000   A     3.04812e-01   6.12119e-01 ; 1.71  0.1463
 n        n           0.00000  0.00000   A     3.18086e-01   6.84502e-01 ; 1.79  0.1636
 c3       c3          0.00000  0.00000   A     3.39771e-01   4.51035e-01 ; 1.91  0.1078
 c        c           0.00000  0.00000   A     3.31521e-01   4.13379e-01 ; 1.86  0.0988
 h1       h1          0.00000  0.00000   A     2.42200e-01   8.70272e-02 ; 1.36  0.0208
 hc       hc          0.00000  0.00000   A     2.60018e-01   8.70272e-02 ; 1.46  0.0208

[ moleculetype ]
;name            nrexcl
 h1eb             3

[ atoms ]
;   nr  type  resi  res  atom  cgnr     charge      mass       ; qtot   bond_type
     1   os     1   UNL     O    1    -0.421900     16.00000 ; qtot -0.422
     2   os     1   UNL    O1    2    -0.421900     16.00000 ; qtot -0.844
     3   os     1   UNL    O2    3    -0.421900     16.00000 ; qtot -1.266
     4    o     1   UNL    O3    4    -0.573100     16.00000 ; qtot -1.839
     5    o     1   UNL    O4    5    -0.573100     16.00000 ; qtot -2.412
     6    o     1   UNL    O5    6    -0.573100     16.00000 ; qtot -2.985
     7    o     1   UNL    O6    7    -0.540667     16.00000 ; qtot -3.526
     8    o     1   UNL    O7    8    -0.540667     16.00000 ; qtot -4.066
     9    o     1   UNL    O8    9    -0.540667     16.00000 ; qtot -4.607
    10    n     1   UNL     N   10    -0.465467     14.01000 ; qtot -5.072
    11    n     1   UNL    N1   11    -0.465467     14.01000 ; qtot -5.538
    12    n     1   UNL    N2   12    -0.465467     14.01000 ; qtot -6.003
    13   c3     1   UNL     C   13     0.063367     12.01000 ; qtot -5.940
    14   c3     1   UNL    C1   14     0.063367     12.01000 ; qtot -5.877
    15   c3     1   UNL    C2   15     0.063367     12.01000 ; qtot -5.813
    16   c3     1   UNL    C3   16     0.091433     12.01000 ; qtot -5.722
    17   c3     1   UNL    C4   17     0.091433     12.01000 ; qtot -5.630
    18   c3     1   UNL    C5   18     0.091433     12.01000 ; qtot -5.539
    19    c     1   UNL    C6   19     0.647763     12.01000 ; qtot -4.891
    20    c     1   UNL    C7   20     0.647763     12.01000 ; qtot -4.243
    21    c     1   UNL    C8   21     0.647763     12.01000 ; qtot -3.596
    22    c     1   UNL    C9   22     0.622100     12.01000 ; qtot -2.974
    23    c     1   UNL   C10   23     0.622100     12.01000 ; qtot -2.352
    24    c     1   UNL   C11   24     0.622100     12.01000 ; qtot -1.729
    25   c3     1   UNL   C12   25     0.071967     12.01000 ; qtot -1.657
    26   c3     1   UNL   C13   26     0.071967     12.01000 ; qtot -1.585
    27   c3     1   UNL   C14   27     0.071967     12.01000 ; qtot -1.514
    28   c3     1   UNL   C15   28    -0.072033     12.01000 ; qtot -1.586
    29   c3     1   UNL   C16   29    -0.094767     12.01000 ; qtot -1.680
    30   c3     1   UNL   C17   30    -0.094767     12.01000 ; qtot -1.775
    31   c3     1   UNL   C18   31    -0.065700     12.01000 ; qtot -1.841
    32   c3     1   UNL   C19   32    -0.102600     12.01000 ; qtot -1.943
    33   c3     1   UNL   C20   33    -0.102600     12.01000 ; qtot -2.046
    34   c3     1   UNL   C21   34    -0.065700     12.01000 ; qtot -2.112
    35   c3     1   UNL   C22   35    -0.102600     12.01000 ; qtot -2.214
    36   c3     1   UNL   C23   36    -0.102600     12.01000 ; qtot -2.317
    37   c3     1   UNL   C24   37    -0.072033     12.01000 ; qtot -2.389
    38   c3     1   UNL   C25   38    -0.094767     12.01000 ; qtot -2.484
    39   c3     1   UNL   C26   39    -0.094767     12.01000 ; qtot -2.578
    40   c3     1   UNL   C27   40    -0.072033     12.01000 ; qtot -2.650
    41   c3     1   UNL   C28   41    -0.094767     12.01000 ; qtot -2.745
    42   c3     1   UNL   C29   42    -0.094767     12.01000 ; qtot -2.840
    43   c3     1   UNL   C30   43    -0.065700     12.01000 ; qtot -2.906
    44   c3     1   UNL   C31   44    -0.102600     12.01000 ; qtot -3.008
    45   c3     1   UNL   C32   45    -0.102600     12.01000 ; qtot -3.111
    46   h1     1   UNL     H   46     0.129700      1.00800 ; qtot -2.981
    47   h1     1   UNL    H1   47     0.129700      1.00800 ; qtot -2.852
    48   h1     1   UNL    H2   48     0.129700      1.00800 ; qtot -2.722
    49   h1     1   UNL    H3   49     0.091033      1.00800 ; qtot -2.631
    50   h1     1   UNL    H4   50     0.091033      1.00800 ; qtot -2.540
    51   h1     1   UNL    H5   51     0.091033      1.00800 ; qtot -2.449
    52   h1     1   UNL    H6   52     0.049367      1.00800 ; qtot -2.399
    53   h1     1   UNL    H7   53     0.049367      1.00800 ; qtot -2.350
    54   h1     1   UNL    H8   54     0.049367      1.00800 ; qtot -2.301
    55   h1     1   UNL    H9   55     0.049367      1.00800 ; qtot -2.251
    56   h1     1   UNL   H10   56     0.049367      1.00800 ; qtot -2.202
    57   h1     1   UNL   H11   57     0.049367      1.00800 ; qtot -2.153
    58   h1     1   UNL   H12   58     0.049367      1.00800 ; qtot -2.103
    59   h1     1   UNL   H13   59     0.049367      1.00800 ; qtot -2.054
    60   h1     1   UNL   H14   60     0.049367      1.00800 ; qtot -2.004
    61   hc     1   UNL   H15   61     0.080033      1.00800 ; qtot -1.924
    62   hc     1   UNL   H16   62     0.042756      1.00800 ; qtot -1.882
    63   hc     1   UNL   H17   63     0.042756      1.00800 ; qtot -1.839
    64   hc     1   UNL   H18   64     0.042756      1.00800 ; qtot -1.796
    65   hc     1   UNL   H19   65     0.042756      1.00800 ; qtot -1.753
    66   hc     1   UNL   H20   66     0.042756      1.00800 ; qtot -1.711
    67   hc     1   UNL   H21   67     0.042756      1.00800 ; qtot -1.668
    68   hc     1   UNL   H22   68     0.061700      1.00800 ; qtot -1.606
    69   hc     1   UNL   H23   69     0.044978      1.00800 ; qtot -1.561
    70   hc     1   UNL   H24   70     0.044978      1.00800 ; qtot -1.516
    71   hc     1   UNL   H25   71     0.044978      1.00800 ; qtot -1.471
    72   hc     1   UNL   H26   72     0.044978      1.00800 ; qtot -1.426
    73   hc     1   UNL   H27   73     0.044978      1.00800 ; qtot -1.381
    74   hc     1   UNL   H28   74     0.044978      1.00800 ; qtot -1.336
    75   hc     1   UNL   H29   75     0.061700      1.00800 ; qtot -1.275
    76   hc     1   UNL   H30   76     0.044978      1.00800 ; qtot -1.230
    77   hc     1   UNL   H31   77     0.044978      1.00800 ; qtot -1.185
    78   hc     1   UNL   H32   78     0.044978      1.00800 ; qtot -1.140
    79   hc     1   UNL   H33   79     0.044978      1.00800 ; qtot -1.095
    80   hc     1   UNL   H34   80     0.044978      1.00800 ; qtot -1.050
    81   hc     1   UNL   H35   81     0.044978      1.00800 ; qtot -1.005
    82   hc     1   UNL   H36   82     0.080033      1.00800 ; qtot -0.925
    83   hc     1   UNL   H37   83     0.042756      1.00800 ; qtot -0.882
    84   hc     1   UNL   H38   84     0.042756      1.00800 ; qtot -0.839
    85   hc     1   UNL   H39   85     0.042756      1.00800 ; qtot -0.796
    86   hc     1   UNL   H40   86     0.042756      1.00800 ; qtot -0.754
    87   hc     1   UNL   H41   87     0.042756      1.00800 ; qtot -0.711
    88   hc     1   UNL   H42   88     0.042756      1.00800 ; qtot -0.668
    89   hc     1   UNL   H43   89     0.080033      1.00800 ; qtot -0.588
    90   hc     1   UNL   H44   90     0.042756      1.00800 ; qtot -0.545
    91   hc     1   UNL   H45   91     0.042756      1.00800 ; qtot -0.503
    92   hc     1   UNL   H46   92     0.042756      1.00800 ; qtot -0.460
    93   hc     1   UNL   H47   93     0.042756      1.00800 ; qtot -0.417
    94   hc     1   UNL   H48   94     0.042756      1.00800 ; qtot -0.374
    95   hc     1   UNL   H49   95     0.042756      1.00800 ; qtot -0.332
    96   hc     1   UNL   H50   96     0.061700      1.00800 ; qtot -0.270
    97   hc     1   UNL   H51   97     0.044978      1.00800 ; qtot -0.225
    98   hc     1   UNL   H52   98     0.044978      1.00800 ; qtot -0.180
    99   hc     1   UNL   H53   99     0.044978      1.00800 ; qtot -0.135
   100   hc     1   UNL   H54  100     0.044978      1.00800 ; qtot -0.090
   101   hc     1   UNL   H55  101     0.044978      1.00800 ; qtot -0.045
   102   hc     1   UNL   H56  102     0.044978      1.00800 ; qtot 0.000

[ bonds ]
;   ai     aj funct   r             k
     1     16   1    1.4273e-01    2.3620e+05 ;      O - C3    
     1     22   1    1.3621e-01    2.9398e+05 ;      O - C9    
     2     17   1    1.4273e-01    2.3620e+05 ;     O1 - C4    
     2     23   1    1.3621e-01    2.9398e+05 ;     O1 - C10   
     3     18   1    1.4273e-01    2.3620e+05 ;     O2 - C5    
     3     24   1    1.3621e-01    2.9398e+05 ;     O2 - C11   
     4     19   1    1.2190e-01    4.9421e+05 ;     O3 - C6    
     5     20   1    1.2190e-01    4.9421e+05 ;     O4 - C7    
     6     21   1    1.2190e-01    4.9421e+05 ;     O5 - C8    
     7     22   1    1.2190e-01    4.9421e+05 ;     O6 - C9    
     8     23   1    1.2190e-01    4.9421e+05 ;     O7 - C10   
     9     24   1    1.2190e-01    4.9421e+05 ;     O8 - C11   
    10     13   1    1.4643e-01    2.1293e+05 ;      N - C     
    10     19   1    1.3967e-01    2.6565e+05 ;      N - C6    
    10     25   1    1.4643e-01    2.1293e+05 ;      N - C12   
    11     14   1    1.4643e-01    2.1293e+05 ;     N1 - C1    
    11     20   1    1.3967e-01    2.6565e+05 ;     N1 - C7    
    11     26   1    1.4643e-01    2.1293e+05 ;     N1 - C13   
    12     15   1    1.4643e-01    2.1293e+05 ;     N2 - C2    
    12     21   1    1.3967e-01    2.6565e+05 ;     N2 - C8    
    12     27   1    1.4643e-01    2.1293e+05 ;     N2 - C14   
    13     23   1    1.5270e-01    1.9652e+05 ;      C - C10   
    13     34   1    1.5354e-01    1.9154e+05 ;      C - C21   
    13     46   1    1.0969e-01    2.8804e+05 ;      C - H     
    14     22   1    1.5270e-01    1.9652e+05 ;     C1 - C9    
    14     31   1    1.5354e-01    1.9154e+05 ;     C1 - C18   
    14     47   1    1.0969e-01    2.8804e+05 ;     C1 - H1    
    15     24   1    1.5270e-01    1.9652e+05 ;     C2 - C11   
    15     43   1    1.5354e-01    1.9154e+05 ;     C2 - C30   
    15     48   1    1.0969e-01    2.8804e+05 ;     C2 - H2    
    16     19   1    1.5270e-01    1.9652e+05 ;     C3 - C6    
    16     28   1    1.5354e-01    1.9154e+05 ;     C3 - C15   
    16     49   1    1.0969e-01    2.8804e+05 ;     C3 - H3    
    17     21   1    1.5270e-01    1.9652e+05 ;     C4 - C8    
    17     40   1    1.5354e-01    1.9154e+05 ;     C4 - C27   
    17     50   1    1.0969e-01    2.8804e+05 ;     C4 - H4    
    18     20   1    1.5270e-01    1.9652e+05 ;     C5 - C7    
    18     37   1    1.5354e-01    1.9154e+05 ;     C5 - C24   
    18     51   1    1.0969e-01    2.8804e+05 ;     C5 - H5    
    25     52   1    1.0969e-01    2.8804e+05 ;    C12 - H6    
    25     53   1    1.0969e-01    2.8804e+05 ;    C12 - H7    
    25     54   1    1.0969e-01    2.8804e+05 ;    C12 - H8    
    26     55   1    1.0969e-01    2.8804e+05 ;    C13 - H9    
    26     56   1    1.0969e-01    2.8804e+05 ;    C13 - H10   
    26     57   1    1.0969e-01    2.8804e+05 ;    C13 - H11   
    27     58   1    1.0969e-01    2.8804e+05 ;    C14 - H12   
    27     59   1    1.0969e-01    2.8804e+05 ;    C14 - H13   
    27     60   1    1.0969e-01    2.8804e+05 ;    C14 - H14   
    28     29   1    1.5354e-01    1.9154e+05 ;    C15 - C16   
    28     30   1    1.5354e-01    1.9154e+05 ;    C15 - C17   
    28     61   1    1.0962e-01    2.8891e+05 ;    C15 - H15   
    29     62   1    1.0962e-01    2.8891e+05 ;    C16 - H16   
    29     63   1    1.0962e-01    2.8891e+05 ;    C16 - H17   
    29     64   1    1.0962e-01    2.8891e+05 ;    C16 - H18   
    30     65   1    1.0962e-01    2.8891e+05 ;    C17 - H19   
    30     66   1    1.0962e-01    2.8891e+05 ;    C17 - H20   
    30     67   1    1.0962e-01    2.8891e+05 ;    C17 - H21   
    31     32   1    1.5354e-01    1.9154e+05 ;    C18 - C19   
    31     33   1    1.5354e-01    1.9154e+05 ;    C18 - C20   
    31     68   1    1.0962e-01    2.8891e+05 ;    C18 - H22   
    32     69   1    1.0962e-01    2.8891e+05 ;    C19 - H23   
    32     70   1    1.0962e-01    2.8891e+05 ;    C19 - H24   
    32     71   1    1.0962e-01    2.8891e+05 ;    C19 - H25   
    33     72   1    1.0962e-01    2.8891e+05 ;    C20 - H26   
    33     73   1    1.0962e-01    2.8891e+05 ;    C20 - H27   
    33     74   1    1.0962e-01    2.8891e+05 ;    C20 - H28   
    34     35   1    1.5354e-01    1.9154e+05 ;    C21 - C22   
    34     36   1    1.5354e-01    1.9154e+05 ;    C21 - C23   
    34     75   1    1.0962e-01    2.8891e+05 ;    C21 - H29   
    35     76   1    1.0962e-01    2.8891e+05 ;    C22 - H30   
    35     77   1    1.0962e-01    2.8891e+05 ;    C22 - H31   
    35     78   1    1.0962e-01    2.8891e+05 ;    C22 - H32   
    36     79   1    1.0962e-01    2.8891e+05 ;    C23 - H33   
    36     80   1    1.0962e-01    2.8891e+05 ;    C23 - H34   
    36     81   1    1.0962e-01    2.8891e+05 ;    C23 - H35   
    37     38   1    1.5354e-01    1.9154e+05 ;    C24 - C25   
    37     39   1    1.5354e-01    1.9154e+05 ;    C24 - C26   
    37     82   1    1.0962e-01    2.8891e+05 ;    C24 - H36   
    38     83   1    1.0962e-01    2.8891e+05 ;    C25 - H37   
    38     84   1    1.0962e-01    2.8891e+05 ;    C25 - H38   
    38     85   1    1.0962e-01    2.8891e+05 ;    C25 - H39   
    39     86   1    1.0962e-01    2.8891e+05 ;    C26 - H40   
    39     87   1    1.0962e-01    2.8891e+05 ;    C26 - H41   
    39     88   1    1.0962e-01    2.8891e+05 ;    C26 - H42   
    40     41   1    1.5354e-01    1.9154e+05 ;    C27 - C28   
    40     42   1    1.5354e-01    1.9154e+05 ;    C27 - C29   
    40     89   1    1.0962e-01    2.8891e+05 ;    C27 - H43   
    41     90   1    1.0962e-01    2.8891e+05 ;    C28 - H44   
    41     91   1    1.0962e-01    2.8891e+05 ;    C28 - H45   
    41     92   1    1.0962e-01    2.8891e+05 ;    C28 - H46   
    42     93   1    1.0962e-01    2.8891e+05 ;    C29 - H47   
    42     94   1    1.0962e-01    2.8891e+05 ;    C29 - H48   
    42     95   1    1.0962e-01    2.8891e+05 ;    C29 - H49   
    43     44   1    1.5354e-01    1.9154e+05 ;    C30 - C31   
    43     45   1    1.5354e-01    1.9154e+05 ;    C30 - C32   
    43     96   1    1.0962e-01    2.8891e+05 ;    C30 - H50   
    44     97   1    1.0962e-01    2.8891e+05 ;    C31 - H51   
    44     98   1    1.0962e-01    2.8891e+05 ;    C31 - H52   
    44     99   1    1.0962e-01    2.8891e+05 ;    C31 - H53   
    45    100   1    1.0962e-01    2.8891e+05 ;    C32 - H54   
    45    101   1    1.0962e-01    2.8891e+05 ;    C32 - H55   
    45    102   1    1.0962e-01    2.8891e+05 ;    C32 - H56   

[ pairs ]
;   ai     aj    funct
     1      4      1 ;      O - O3    
     1     10      1 ;      O - N     
     1     11      1 ;      O - N1    
     1     29      1 ;      O - C16   
     1     30      1 ;      O - C17   
     1     31      1 ;      O - C18   
     1     47      1 ;      O - H1    
     1     61      1 ;      O - H15   
     2      6      1 ;     O1 - O5    
     2     10      1 ;     O1 - N     
     2     12      1 ;     O1 - N2    
     2     34      1 ;     O1 - C21   
     2     41      1 ;     O1 - C28   
     2     42      1 ;     O1 - C29   
     2     46      1 ;     O1 - H     
     2     89      1 ;     O1 - H43   
     3      5      1 ;     O2 - O4    
     3     11      1 ;     O2 - N1    
     3     12      1 ;     O2 - N2    
     3     38      1 ;     O2 - C25   
     3     39      1 ;     O2 - C26   
     3     43      1 ;     O2 - C30   
     3     48      1 ;     O2 - H2    
     3     82      1 ;     O2 - H36   
     4     13      1 ;     O3 - C     
     4     25      1 ;     O3 - C12   
     4     28      1 ;     O3 - C15   
     4     49      1 ;     O3 - H3    
     5     14      1 ;     O4 - C1    
     5     26      1 ;     O4 - C13   
     5     37      1 ;     O4 - C24   
     5     51      1 ;     O4 - H5    
     6     15      1 ;     O5 - C2    
     6     27      1 ;     O5 - C14   
     6     40      1 ;     O5 - C27   
     6     50      1 ;     O5 - H4    
     7     11      1 ;     O6 - N1    
     7     31      1 ;     O6 - C18   
     7     47      1 ;     O6 - H1    
     8     10      1 ;     O7 - N     
     8     17      1 ;     O7 - C4    
     8     34      1 ;     O7 - C21   
     8     46      1 ;     O7 - H     
     9     12      1 ;     O8 - N2    
     9     18      1 ;     O8 - C5    
     9     43      1 ;     O8 - C30   
     9     48      1 ;     O8 - H2    
    10     28      1 ;      N - C15   
    10     35      1 ;      N - C22   
    10     36      1 ;      N - C23   
    10     49      1 ;      N - H3    
    10     75      1 ;      N - H29   
    11     32      1 ;     N1 - C19   
    11     33      1 ;     N1 - C20   
    11     37      1 ;     N1 - C24   
    11     51      1 ;     N1 - H5    
    11     68      1 ;     N1 - H22   
    12     40      1 ;     N2 - C27   
    12     44      1 ;     N2 - C31   
    12     45      1 ;     N2 - C32   
    12     50      1 ;     N2 - H4    
    12     96      1 ;     N2 - H50   
    13     16      1 ;      C - C3    
    13     17      1 ;      C - C4    
    13     52      1 ;      C - H6    
    13     53      1 ;      C - H7    
    13     54      1 ;      C - H8    
    13     76      1 ;      C - H30   
    13     77      1 ;      C - H31   
    13     78      1 ;      C - H32   
    13     79      1 ;      C - H33   
    13     80      1 ;      C - H34   
    13     81      1 ;      C - H35   
    14     18      1 ;     C1 - C5    
    14     55      1 ;     C1 - H9    
    14     56      1 ;     C1 - H10   
    14     57      1 ;     C1 - H11   
    14     69      1 ;     C1 - H23   
    14     70      1 ;     C1 - H24   
    14     71      1 ;     C1 - H25   
    14     72      1 ;     C1 - H26   
    14     73      1 ;     C1 - H27   
    14     74      1 ;     C1 - H28   
    15     17      1 ;     C2 - C4    
    15     18      1 ;     C2 - C5    
    15     58      1 ;     C2 - H12   
    15     59      1 ;     C2 - H13   
    15     60      1 ;     C2 - H14   
    15     97      1 ;     C2 - H51   
    15     98      1 ;     C2 - H52   
    15     99      1 ;     C2 - H53   
    15    100      1 ;     C2 - H54   
    15    101      1 ;     C2 - H55   
    15    102      1 ;     C2 - H56   
    16      7      1 ;     C3 - O6    
    16     14      1 ;     C3 - C1    
    16     25      1 ;     C3 - C12   
    16     62      1 ;     C3 - H16   
    16     63      1 ;     C3 - H17   
    16     64      1 ;     C3 - H18   
    16     65      1 ;     C3 - H19   
    16     66      1 ;     C3 - H20   
    16     67      1 ;     C3 - H21   
    17     27      1 ;     C4 - C14   
    17     90      1 ;     C4 - H44   
    17     91      1 ;     C4 - H45   
    17     92      1 ;     C4 - H46   
    17     93      1 ;     C4 - H47   
    17     94      1 ;     C4 - H48   
    17     95      1 ;     C4 - H49   
    18     26      1 ;     C5 - C13   
    18     83      1 ;     C5 - H37   
    18     84      1 ;     C5 - H38   
    18     85      1 ;     C5 - H39   
    18     86      1 ;     C5 - H40   
    18     87      1 ;     C5 - H41   
    18     88      1 ;     C5 - H42   
    19     23      1 ;     C6 - C10   
    19     29      1 ;     C6 - C16   
    19     30      1 ;     C6 - C17   
    19     34      1 ;     C6 - C21   
    19     46      1 ;     C6 - H     
    19     52      1 ;     C6 - H6    
    19     53      1 ;     C6 - H7    
    19     54      1 ;     C6 - H8    
    19     61      1 ;     C6 - H15   
    20     22      1 ;     C7 - C9    
    20     24      1 ;     C7 - C11   
    20     31      1 ;     C7 - C18   
    20     38      1 ;     C7 - C25   
    20     39      1 ;     C7 - C26   
    20     47      1 ;     C7 - H1    
    20     55      1 ;     C7 - H9    
    20     56      1 ;     C7 - H10   
    20     57      1 ;     C7 - H11   
    20     82      1 ;     C7 - H36   
    21     23      1 ;     C8 - C10   
    21     24      1 ;     C8 - C11   
    21     41      1 ;     C8 - C28   
    21     42      1 ;     C8 - C29   
    21     43      1 ;     C8 - C30   
    21     48      1 ;     C8 - H2    
    21     58      1 ;     C8 - H12   
    21     59      1 ;     C8 - H13   
    21     60      1 ;     C8 - H14   
    21     89      1 ;     C8 - H43   
    22     19      1 ;     C9 - C6    
    22     26      1 ;     C9 - C13   
    22     28      1 ;     C9 - C15   
    22     32      1 ;     C9 - C19   
    22     33      1 ;     C9 - C20   
    22     49      1 ;     C9 - H3    
    22     68      1 ;     C9 - H22   
    23     25      1 ;    C10 - C12   
    23     35      1 ;    C10 - C22   
    23     36      1 ;    C10 - C23   
    23     40      1 ;    C10 - C27   
    23     50      1 ;    C10 - H4    
    23     75      1 ;    C10 - H29   
    24     27      1 ;    C11 - C14   
    24     37      1 ;    C11 - C24   
    24     44      1 ;    C11 - C31   
    24     45      1 ;    C11 - C32   
    24     51      1 ;    C11 - H5    
    24     96      1 ;    C11 - H50   
    25     34      1 ;    C12 - C21   
    25     46      1 ;    C12 - H     
    26     31      1 ;    C13 - C18   
    26     47      1 ;    C13 - H1    
    27     43      1 ;    C14 - C30   
    27     48      1 ;    C14 - H2    
    29     49      1 ;    C16 - H3    
    29     65      1 ;    C16 - H19   
    29     66      1 ;    C16 - H20   
    29     67      1 ;    C16 - H21   
    30     49      1 ;    C17 - H3    
    30     62      1 ;    C17 - H16   
    30     63      1 ;    C17 - H17   
    30     64      1 ;    C17 - H18   
    32     47      1 ;    C19 - H1    
    32     72      1 ;    C19 - H26   
    32     73      1 ;    C19 - H27   
    32     74      1 ;    C19 - H28   
    33     47      1 ;    C20 - H1    
    33     69      1 ;    C20 - H23   
    33     70      1 ;    C20 - H24   
    33     71      1 ;    C20 - H25   
    35     46      1 ;    C22 - H     
    35     79      1 ;    C22 - H33   
    35     80      1 ;    C22 - H34   
    35     81      1 ;    C22 - H35   
    36     46      1 ;    C23 - H     
    36     76      1 ;    C23 - H30   
    36     77      1 ;    C23 - H31   
    36     78      1 ;    C23 - H32   
    38     51      1 ;    C25 - H5    
    38     86      1 ;    C25 - H40   
    38     87      1 ;    C25 - H41   
    38     88      1 ;    C25 - H42   
    39     51      1 ;    C26 - H5    
    39     83      1 ;    C26 - H37   
    39     84      1 ;    C26 - H38   
    39     85      1 ;    C26 - H39   
    41     50      1 ;    C28 - H4    
    41     93      1 ;    C28 - H47   
    41     94      1 ;    C28 - H48   
    41     95      1 ;    C28 - H49   
    42     50      1 ;    C29 - H4    
    42     90      1 ;    C29 - H44   
    42     91      1 ;    C29 - H45   
    42     92      1 ;    C29 - H46   
    44     48      1 ;    C31 - H2    
    44    100      1 ;    C31 - H54   
    44    101      1 ;    C31 - H55   
    44    102      1 ;    C31 - H56   
    45     48      1 ;    C32 - H2    
    45     97      1 ;    C32 - H51   
    45     98      1 ;    C32 - H52   
    45     99      1 ;    C32 - H53   
    46     75      1 ;      H - H29   
    47     68      1 ;     H1 - H22   
    48     96      1 ;     H2 - H50   
    49     61      1 ;     H3 - H15   
    50     89      1 ;     H4 - H43   
    51     82      1 ;     H5 - H36   
    61     62      1 ;    H15 - H16   
    61     63      1 ;    H15 - H17   
    61     64      1 ;    H15 - H18   
    61     65      1 ;    H15 - H19   
    61     66      1 ;    H15 - H20   
    61     67      1 ;    H15 - H21   
    68     69      1 ;    H22 - H23   
    68     70      1 ;    H22 - H24   
    68     71      1 ;    H22 - H25   
    68     72      1 ;    H22 - H26   
    68     73      1 ;    H22 - H27   
    68     74      1 ;    H22 - H28   
    75     76      1 ;    H29 - H30   
    75     77      1 ;    H29 - H31   
    75     78      1 ;    H29 - H32   
    75     79      1 ;    H29 - H33   
    75     80      1 ;    H29 - H34   
    75     81      1 ;    H29 - H35   
    82     83      1 ;    H36 - H37   
    82     84      1 ;    H36 - H38   
    82     85      1 ;    H36 - H39   
    82     86      1 ;    H36 - H40   
    82     87      1 ;    H36 - H41   
    82     88      1 ;    H36 - H42   
    89     90      1 ;    H43 - H44   
    89     91      1 ;    H43 - H45   
    89     92      1 ;    H43 - H46   
    89     93      1 ;    H43 - H47   
    89     94      1 ;    H43 - H48   
    89     95      1 ;    H43 - H49   
    96     97      1 ;    H50 - H51   
    96     98      1 ;    H50 - H52   
    96     99      1 ;    H50 - H53   
    96    100      1 ;    H50 - H54   
    96    101      1 ;    H50 - H55   
    96    102      1 ;    H50 - H56   

[ angles ]
;   ai     aj     ak    funct   theta         cth
     1     16     19      1    1.0927e+02    6.4517e+02 ;      O - C3     - C6    
     1     16     28      1    1.0762e+02    6.4802e+02 ;      O - C3     - C15   
     1     16     49      1    1.1034e+02    4.7028e+02 ;      O - C3     - H3    
     1     22      7      1    1.2320e+02    8.4734e+02 ;      O - C9     - O6    
     1     22     14      1    1.1080e+02    6.5245e+02 ;      O - C9     - C1    
     2     17     21      1    1.0927e+02    6.4517e+02 ;     O1 - C4     - C8    
     2     17     40      1    1.0762e+02    6.4802e+02 ;     O1 - C4     - C27   
     2     17     50      1    1.1034e+02    4.7028e+02 ;     O1 - C4     - H4    
     2     23      8      1    1.2320e+02    8.4734e+02 ;     O1 - C10    - O7    
     2     23     13      1    1.1080e+02    6.5245e+02 ;     O1 - C10    - C     
     3     18     20      1    1.0927e+02    6.4517e+02 ;     O2 - C5     - C7    
     3     18     37      1    1.0762e+02    6.4802e+02 ;     O2 - C5     - C24   
     3     18     51      1    1.1034e+02    4.7028e+02 ;     O2 - C5     - H5    
     3     24      9      1    1.2320e+02    8.4734e+02 ;     O2 - C11    - O8    
     3     24     15      1    1.1080e+02    6.5245e+02 ;     O2 - C11    - C2    
     4     19     10      1    1.2257e+02    7.2534e+02 ;     O3 - C6     - N     
     4     19     16      1    1.2290e+02    6.3973e+02 ;     O3 - C6     - C3    
     5     20     11      1    1.2257e+02    7.2534e+02 ;     O4 - C7     - N1    
     5     20     18      1    1.2290e+02    6.3973e+02 ;     O4 - C7     - C5    
     6     21     12      1    1.2257e+02    7.2534e+02 ;     O5 - C8     - N2    
     6     21     17      1    1.2290e+02    6.3973e+02 ;     O5 - C8     - C4    
     7     22     14      1    1.2290e+02    6.3973e+02 ;     O6 - C9     - C1    
     8     23     13      1    1.2290e+02    6.3973e+02 ;     O7 - C10    - C     
     9     24     15      1    1.2290e+02    6.3973e+02 ;     O8 - C11    - C2    
    10     13     23      1    1.1194e+02    5.4718e+02 ;      N - C      - C10   
    10     13     34      1    1.1278e+02    5.4350e+02 ;      N - C      - C21   
    10     13     46      1    1.0876e+02    4.0242e+02 ;      N - C      - H     
    10     19     16      1    1.1716e+02    5.4551e+02 ;      N - C6     - C3    
    10     25     52      1    1.0876e+02    4.0242e+02 ;      N - C12    - H6    
    10     25     53      1    1.0876e+02    4.0242e+02 ;      N - C12    - H7    
    10     25     54      1    1.0876e+02    4.0242e+02 ;      N - C12    - H8    
    11     14     22      1    1.1194e+02    5.4718e+02 ;     N1 - C1     - C9    
    11     14     31      1    1.1278e+02    5.4350e+02 ;     N1 - C1     - C18   
    11     14     47      1    1.0876e+02    4.0242e+02 ;     N1 - C1     - H1    
    11     20     18      1    1.1716e+02    5.4551e+02 ;     N1 - C7     - C5    
    11     26     55      1    1.0876e+02    4.0242e+02 ;     N1 - C13    - H9    
    11     26     56      1    1.0876e+02    4.0242e+02 ;     N1 - C13    - H10   
    11     26     57      1    1.0876e+02    4.0242e+02 ;     N1 - C13    - H11   
    12     15     24      1    1.1194e+02    5.4718e+02 ;     N2 - C2     - C11   
    12     15     43      1    1.1278e+02    5.4350e+02 ;     N2 - C2     - C30   
    12     15     48      1    1.0876e+02    4.0242e+02 ;     N2 - C2     - H2    
    12     21     17      1    1.1716e+02    5.4551e+02 ;     N2 - C8     - C4    
    12     27     58      1    1.0876e+02    4.0242e+02 ;     N2 - C14    - H12   
    12     27     59      1    1.0876e+02    4.0242e+02 ;     N2 - C14    - H13   
    12     27     60      1    1.0876e+02    4.0242e+02 ;     N2 - C14    - H14   
    13     10     19      1    1.1883e+02    6.4634e+02 ;      C - N      - C6    
    13     10     25      1    1.1675e+02    6.3773e+02 ;      C - N      - C12   
    13     34     35      1    1.1263e+02    5.0099e+02 ;      C - C21    - C22   
    13     34     36      1    1.1263e+02    5.0099e+02 ;      C - C21    - C23   
    13     34     75      1    1.0968e+02    3.6208e+02 ;      C - C21    - H29   
    14     11     20      1    1.1883e+02    6.4634e+02 ;     C1 - N1     - C7    
    14     11     26      1    1.1675e+02    6.3773e+02 ;     C1 - N1     - C13   
    14     31     32      1    1.1263e+02    5.0099e+02 ;     C1 - C18    - C19   
    14     31     33      1    1.1263e+02    5.0099e+02 ;     C1 - C18    - C20   
    14     31     68      1    1.0968e+02    3.6208e+02 ;     C1 - C18    - H22   
    15     12     21      1    1.1883e+02    6.4634e+02 ;     C2 - N2     - C8    
    15     12     27      1    1.1675e+02    6.3773e+02 ;     C2 - N2     - C14   
    15     43     44      1    1.1263e+02    5.0099e+02 ;     C2 - C30    - C31   
    15     43     45      1    1.1263e+02    5.0099e+02 ;     C2 - C30    - C32   
    15     43     96      1    1.0968e+02    3.6208e+02 ;     C2 - C30    - H50   
    16      1     22      1    1.1582e+02    7.4835e+02 ;     C3 - O      - C9    
    16     28     29      1    1.1263e+02    5.0099e+02 ;     C3 - C15    - C16   
    16     28     30      1    1.1263e+02    5.0099e+02 ;     C3 - C15    - C17   
    16     28     61      1    1.0968e+02    3.6208e+02 ;     C3 - C15    - H15   
    17      2     23      1    1.1582e+02    7.4835e+02 ;     C4 - O1     - C10   
    17     40     41      1    1.1263e+02    5.0099e+02 ;     C4 - C27    - C28   
    17     40     42      1    1.1263e+02    5.0099e+02 ;     C4 - C27    - C29   
    17     40     89      1    1.0968e+02    3.6208e+02 ;     C4 - C27    - H43   
    18      3     24      1    1.1582e+02    7.4835e+02 ;     C5 - O2     - C11   
    18     37     38      1    1.1263e+02    5.0099e+02 ;     C5 - C24    - C25   
    18     37     39      1    1.1263e+02    5.0099e+02 ;     C5 - C24    - C26   
    18     37     82      1    1.0968e+02    3.6208e+02 ;     C5 - C24    - H36   
    19     10     25      1    1.1883e+02    6.4634e+02 ;     C6 - N      - C12   
    19     16     28      1    1.1143e+02    5.0509e+02 ;     C6 - C3     - C15   
    19     16     49      1    1.0837e+02    3.6602e+02 ;     C6 - C3     - H3    
    20     11     26      1    1.1883e+02    6.4634e+02 ;     C7 - N1     - C13   
    20     18     37      1    1.1143e+02    5.0509e+02 ;     C7 - C5     - C24   
    20     18     51      1    1.0837e+02    3.6602e+02 ;     C7 - C5     - H5    
    21     12     27      1    1.1883e+02    6.4634e+02 ;     C8 - N2     - C14   
    21     17     40      1    1.1143e+02    5.0509e+02 ;     C8 - C4     - C27   
    21     17     50      1    1.0837e+02    3.6602e+02 ;     C8 - C4     - H4    
    22     14     31      1    1.1143e+02    5.0509e+02 ;     C9 - C1     - C18   
    22     14     47      1    1.0837e+02    3.6602e+02 ;     C9 - C1     - H1    
    23     13     34      1    1.1143e+02    5.0509e+02 ;    C10 - C      - C21   
    23     13     46      1    1.0837e+02    3.6602e+02 ;    C10 - C      - H     
    24     15     43      1    1.1143e+02    5.0509e+02 ;    C11 - C2     - C30   
    24     15     48      1    1.0837e+02    3.6602e+02 ;    C11 - C2     - H2    
    28     16     49      1    1.0959e+02    3.6217e+02 ;    C15 - C3     - H3    
    28     29     62      1    1.0968e+02    3.6208e+02 ;    C15 - C16    - H16   
    28     29     63      1    1.0968e+02    3.6208e+02 ;    C15 - C16    - H17   
    28     29     64      1    1.0968e+02    3.6208e+02 ;    C15 - C16    - H18   
    28     30     65      1    1.0968e+02    3.6208e+02 ;    C15 - C17    - H19   
    28     30     66      1    1.0968e+02    3.6208e+02 ;    C15 - C17    - H20   
    28     30     67      1    1.0968e+02    3.6208e+02 ;    C15 - C17    - H21   
    29     28     30      1    1.1263e+02    5.0099e+02 ;    C16 - C15    - C17   
    29     28     61      1    1.0968e+02    3.6208e+02 ;    C16 - C15    - H15   
    30     28     61      1    1.0968e+02    3.6208e+02 ;    C17 - C15    - H15   
    31     14     47      1    1.0959e+02    3.6217e+02 ;    C18 - C1     - H1    
    31     32     69      1    1.0968e+02    3.6208e+02 ;    C18 - C19    - H23   
    31     32     70      1    1.0968e+02    3.6208e+02 ;    C18 - C19    - H24   
    31     32     71      1    1.0968e+02    3.6208e+02 ;    C18 - C19    - H25   
    31     33     72      1    1.0968e+02    3.6208e+02 ;    C18 - C20    - H26   
    31     33     73      1    1.0968e+02    3.6208e+02 ;    C18 - C20    - H27   
    31     33     74      1    1.0968e+02    3.6208e+02 ;    C18 - C20    - H28   
    32     31     33      1    1.1263e+02    5.0099e+02 ;    C19 - C18    - C20   
    32     31     68      1    1.0968e+02    3.6208e+02 ;    C19 - C18    - H22   
    33     31     68      1    1.0968e+02    3.6208e+02 ;    C20 - C18    - H22   
    34     13     46      1    1.0959e+02    3.6217e+02 ;    C21 - C      - H     
    34     35     76      1    1.0968e+02    3.6208e+02 ;    C21 - C22    - H30   
    34     35     77      1    1.0968e+02    3.6208e+02 ;    C21 - C22    - H31   
    34     35     78      1    1.0968e+02    3.6208e+02 ;    C21 - C22    - H32   
    34     36     79      1    1.0968e+02    3.6208e+02 ;    C21 - C23    - H33   
    34     36     80      1    1.0968e+02    3.6208e+02 ;    C21 - C23    - H34   
    34     36     81      1    1.0968e+02    3.6208e+02 ;    C21 - C23    - H35   
    35     34     36      1    1.1263e+02    5.0099e+02 ;    C22 - C21    - C23   
    35     34     75      1    1.0968e+02    3.6208e+02 ;    C22 - C21    - H29   
    36     34     75      1    1.0968e+02    3.6208e+02 ;    C23 - C21    - H29   
    37     18     51      1    1.0959e+02    3.6217e+02 ;    C24 - C5     - H5    
    37     38     83      1    1.0968e+02    3.6208e+02 ;    C24 - C25    - H37   
    37     38     84      1    1.0968e+02    3.6208e+02 ;    C24 - C25    - H38   
    37     38     85      1    1.0968e+02    3.6208e+02 ;    C24 - C25    - H39   
    37     39     86      1    1.0968e+02    3.6208e+02 ;    C24 - C26    - H40   
    37     39     87      1    1.0968e+02    3.6208e+02 ;    C24 - C26    - H41   
    37     39     88      1    1.0968e+02    3.6208e+02 ;    C24 - C26    - H42   
    38     37     39      1    1.1263e+02    5.0099e+02 ;    C25 - C24    - C26   
    38     37     82      1    1.0968e+02    3.6208e+02 ;    C25 - C24    - H36   
    39     37     82      1    1.0968e+02    3.6208e+02 ;    C26 - C24    - H36   
    40     17     50      1    1.0959e+02    3.6217e+02 ;    C27 - C4     - H4    
    40     41     90      1    1.0968e+02    3.6208e+02 ;    C27 - C28    - H44   
    40     41     91      1    1.0968e+02    3.6208e+02 ;    C27 - C28    - H45   
    40     41     92      1    1.0968e+02    3.6208e+02 ;    C27 - C28    - H46   
    40     42     93      1    1.0968e+02    3.6208e+02 ;    C27 - C29    - H47   
    40     42     94      1    1.0968e+02    3.6208e+02 ;    C27 - C29    - H48   
    40     42     95      1    1.0968e+02    3.6208e+02 ;    C27 - C29    - H49   
    41     40     42      1    1.1263e+02    5.0099e+02 ;    C28 - C27    - C29   
    41     40     89      1    1.0968e+02    3.6208e+02 ;    C28 - C27    - H43   
    42     40     89      1    1.0968e+02    3.6208e+02 ;    C29 - C27    - H43   
    43     15     48      1    1.0959e+02    3.6217e+02 ;    C30 - C2     - H2    
    43     44     97      1    1.0968e+02    3.6208e+02 ;    C30 - C31    - H51   
    43     44     98      1    1.0968e+02    3.6208e+02 ;    C30 - C31    - H52   
    43     44     99      1    1.0968e+02    3.6208e+02 ;    C30 - C31    - H53   
    43     45    100      1    1.0968e+02    3.6208e+02 ;    C30 - C32    - H54   
    43     45    101      1    1.0968e+02    3.6208e+02 ;    C30 - C32    - H55   
    43     45    102      1    1.0968e+02    3.6208e+02 ;    C30 - C32    - H56   
    44     43     45      1    1.1263e+02    5.0099e+02 ;    C31 - C30    - C32   
    44     43     96      1    1.0968e+02    3.6208e+02 ;    C31 - C30    - H50   
    45     43     96      1    1.0968e+02    3.6208e+02 ;    C32 - C30    - H50   
    52     25     53      1    1.0855e+02    2.9824e+02 ;     H6 - C12    - H7    
    52     25     54      1    1.0855e+02    2.9824e+02 ;     H6 - C12    - H8    
    53     25     54      1    1.0855e+02    2.9824e+02 ;     H7 - C12    - H8    
    55     26     56      1    1.0855e+02    2.9824e+02 ;     H9 - C13    - H10   
    55     26     57      1    1.0855e+02    2.9824e+02 ;     H9 - C13    - H11   
    56     26     57      1    1.0855e+02    2.9824e+02 ;    H10 - C13    - H11   
    58     27     59      1    1.0855e+02    2.9824e+02 ;    H12 - C14    - H13   
    58     27     60      1    1.0855e+02    2.9824e+02 ;    H12 - C14    - H14   
    59     27     60      1    1.0855e+02    2.9824e+02 ;    H13 - C14    - H14   
    62     29     63      1    1.0773e+02    2.9957e+02 ;    H16 - C16    - H17   
    62     29     64      1    1.0773e+02    2.9957e+02 ;    H16 - C16    - H18   
    63     29     64      1    1.0773e+02    2.9957e+02 ;    H17 - C16    - H18   
    65     30     66      1    1.0773e+02    2.9957e+02 ;    H19 - C17    - H20   
    65     30     67      1    1.0773e+02    2.9957e+02 ;    H19 - C17    - H21   
    66     30     67      1    1.0773e+02    2.9957e+02 ;    H20 - C17    - H21   
    69     32     70      1    1.0773e+02    2.9957e+02 ;    H23 - C19    - H24   
    69     32     71      1    1.0773e+02    2.9957e+02 ;    H23 - C19    - H25   
    70     32     71      1    1.0773e+02    2.9957e+02 ;    H24 - C19    - H25   
    72     33     73      1    1.0773e+02    2.9957e+02 ;    H26 - C20    - H27   
    72     33     74      1    1.0773e+02    2.9957e+02 ;    H26 - C20    - H28   
    73     33     74      1    1.0773e+02    2.9957e+02 ;    H27 - C20    - H28   
    76     35     77      1    1.0773e+02    2.9957e+02 ;    H30 - C22    - H31   
    76     35     78      1    1.0773e+02    2.9957e+02 ;    H30 - C22    - H32   
    77     35     78      1    1.0773e+02    2.9957e+02 ;    H31 - C22    - H32   
    79     36     80      1    1.0773e+02    2.9957e+02 ;    H33 - C23    - H34   
    79     36     81      1    1.0773e+02    2.9957e+02 ;    H33 - C23    - H35   
    80     36     81      1    1.0773e+02    2.9957e+02 ;    H34 - C23    - H35   
    83     38     84      1    1.0773e+02    2.9957e+02 ;    H37 - C25    - H38   
    83     38     85      1    1.0773e+02    2.9957e+02 ;    H37 - C25    - H39   
    84     38     85      1    1.0773e+02    2.9957e+02 ;    H38 - C25    - H39   
    86     39     87      1    1.0773e+02    2.9957e+02 ;    H40 - C26    - H41   
    86     39     88      1    1.0773e+02    2.9957e+02 ;    H40 - C26    - H42   
    87     39     88      1    1.0773e+02    2.9957e+02 ;    H41 - C26    - H42   
    90     41     91      1    1.0773e+02    2.9957e+02 ;    H44 - C28    - H45   
    90     41     92      1    1.0773e+02    2.9957e+02 ;    H44 - C28    - H46   
    91     41     92      1    1.0773e+02    2.9957e+02 ;    H45 - C28    - H46   
    93     42     94      1    1.0773e+02    2.9957e+02 ;    H47 - C29    - H48   
    93     42     95      1    1.0773e+02    2.9957e+02 ;    H47 - C29    - H49   
    94     42     95      1    1.0773e+02    2.9957e+02 ;    H48 - C29    - H49   
    97     44     98      1    1.0773e+02    2.9957e+02 ;    H51 - C31    - H52   
    97     44     99      1    1.0773e+02    2.9957e+02 ;    H51 - C31    - H53   
    98     44     99      1    1.0773e+02    2.9957e+02 ;    H52 - C31    - H53   
   100     45    101      1    1.0773e+02    2.9957e+02 ;    H54 - C32    - H55   
   100     45    102      1    1.0773e+02    2.9957e+02 ;    H54 - C32    - H56   
   101     45    102      1    1.0773e+02    2.9957e+02 ;    H55 - C32    - H56   

[ dihedrals ] ; propers
; for gromacs 4.5 or higher, using funct 9
;    i      j      k      l   func   phase     kd      pn
     1     16     19      4      9   180.00   0.00000   1 ;      O-    C3-    C6-    O3
     1     16     19      4      9   180.00   0.87864   3 ;      O-    C3-    C6-    O3
     1     16     19      4      9   180.00   4.47688   2 ;      O-    C3-    C6-    O3
     1     16     19     10      9   180.00   0.00000   2 ;      O-    C3-    C6-     N
     1     16     28     29      9     0.00   0.65084   3 ;      O-    C3-   C15-   C16
     1     16     28     30      9     0.00   0.65084   3 ;      O-    C3-   C15-   C17
     1     16     28     61      9     0.00   0.00000   0 ;      O-    C3-   C15-   H15
     1     16     28     61      9     0.00   1.04600   1 ;      O-    C3-   C15-   H15
     1     22     14     11      9   180.00   0.00000   2 ;      O-    C9-    C1-    N1
     1     22     14     31      9   180.00   0.00000   2 ;      O-    C9-    C1-   C18
     1     22     14     47      9   180.00   0.00000   2 ;      O-    C9-    C1-    H1
     2     17     21      6      9   180.00   0.00000   1 ;     O1-    C4-    C8-    O5
     2     17     21      6      9   180.00   0.87864   3 ;     O1-    C4-    C8-    O5
     2     17     21      6      9   180.00   4.47688   2 ;     O1-    C4-    C8-    O5
     2     17     21     12      9   180.00   0.00000   2 ;     O1-    C4-    C8-    N2
     2     17     40     41      9     0.00   0.65084   3 ;     O1-    C4-   C27-   C28
     2     17     40     42      9     0.00   0.65084   3 ;     O1-    C4-   C27-   C29
     2     17     40     89      9     0.00   0.00000   0 ;     O1-    C4-   C27-   H43
     2     17     40     89      9     0.00   1.04600   1 ;     O1-    C4-   C27-   H43
     2     23     13     10      9   180.00   0.00000   2 ;     O1-   C10-     C-     N
     2     23     13     34      9   180.00   0.00000   2 ;     O1-   C10-     C-   C21
     2     23     13     46      9   180.00   0.00000   2 ;     O1-   C10-     C-     H
     3     18     20      5      9   180.00   0.00000   1 ;     O2-    C5-    C7-    O4
     3     18     20      5      9   180.00   0.87864   3 ;     O2-    C5-    C7-    O4
     3     18     20      5      9   180.00   4.47688   2 ;     O2-    C5-    C7-    O4
     3     18     20     11      9   180.00   0.00000   2 ;     O2-    C5-    C7-    N1
     3     18     37     38      9     0.00   0.65084   3 ;     O2-    C5-   C24-   C25
     3     18     37     39      9     0.00   0.65084   3 ;     O2-    C5-   C24-   C26
     3     18     37     82      9     0.00   0.00000   0 ;     O2-    C5-   C24-   H36
     3     18     37     82      9     0.00   1.04600   1 ;     O2-    C5-   C24-   H36
     3     24     15     12      9   180.00   0.00000   2 ;     O2-   C11-    C2-    N2
     3     24     15     43      9   180.00   0.00000   2 ;     O2-   C11-    C2-   C30
     3     24     15     48      9   180.00   0.00000   2 ;     O2-   C11-    C2-    H2
     4     19     10     13      9   180.00  10.46000   2 ;     O3-    C6-     N-     C
     4     19     10     25      9   180.00  10.46000   2 ;     O3-    C6-     N-   C12
     4     19     16     28      9     0.00   2.84512   1 ;     O3-    C6-    C3-   C15
     4     19     16     28      9   180.00   0.83680   2 ;     O3-    C6-    C3-   C15
     4     19     16     28      9   180.00   1.84096   3 ;     O3-    C6-    C3-   C15
     4     19     16     49      9     0.00   3.34720   1 ;     O3-    C6-    C3-    H3
     4     19     16     49      9   180.00   0.33472   3 ;     O3-    C6-    C3-    H3
     5     20     11     14      9   180.00  10.46000   2 ;     O4-    C7-    N1-    C1
     5     20     11     26      9   180.00  10.46000   2 ;     O4-    C7-    N1-   C13
     5     20     18     37      9     0.00   2.84512   1 ;     O4-    C7-    C5-   C24
     5     20     18     37      9   180.00   0.83680   2 ;     O4-    C7-    C5-   C24
     5     20     18     37      9   180.00   1.84096   3 ;     O4-    C7-    C5-   C24
     5     20     18     51      9     0.00   3.34720   1 ;     O4-    C7-    C5-    H5
     5     20     18     51      9   180.00   0.33472   3 ;     O4-    C7-    C5-    H5
     6     21     12     15      9   180.00  10.46000   2 ;     O5-    C8-    N2-    C2
     6     21     12     27      9   180.00  10.46000   2 ;     O5-    C8-    N2-   C14
     6     21     17     40      9     0.00   2.84512   1 ;     O5-    C8-    C4-   C27
     6     21     17     40      9   180.00   0.83680   2 ;     O5-    C8-    C4-   C27
     6     21     17     40      9   180.00   1.84096   3 ;     O5-    C8-    C4-   C27
     6     21     17     50      9     0.00   3.34720   1 ;     O5-    C8-    C4-    H4
     6     21     17     50      9   180.00   0.33472   3 ;     O5-    C8-    C4-    H4
     7     22     14     11      9   180.00   0.00000   2 ;     O6-    C9-    C1-    N1
     7     22     14     31      9     0.00   2.84512   1 ;     O6-    C9-    C1-   C18
     7     22     14     31      9   180.00   0.83680   2 ;     O6-    C9-    C1-   C18
     7     22     14     31      9   180.00   1.84096   3 ;     O6-    C9-    C1-   C18
     7     22     14     47      9     0.00   3.34720   1 ;     O6-    C9-    C1-    H1
     7     22     14     47      9   180.00   0.33472   3 ;     O6-    C9-    C1-    H1
     8     23      2     17      9   180.00   5.85760   1 ;     O7-   C10-    O1-    C4
     8     23      2     17      9   180.00  11.29680   2 ;     O7-   C10-    O1-    C4
     8     23     13     10      9   180.00   0.00000   2 ;     O7-   C10-     C-     N
     8     23     13     34      9     0.00   2.84512   1 ;     O7-   C10-     C-   C21
     8     23     13     34      9   180.00   0.83680   2 ;     O7-   C10-     C-   C21
     8     23     13     34      9   180.00   1.84096   3 ;     O7-   C10-     C-   C21
     8     23     13     46      9     0.00   3.34720   1 ;     O7-   C10-     C-     H
     8     23     13     46      9   180.00   0.33472   3 ;     O7-   C10-     C-     H
     9     24      3     18      9   180.00   5.85760   1 ;     O8-   C11-    O2-    C5
     9     24      3     18      9   180.00  11.29680   2 ;     O8-   C11-    O2-    C5
     9     24     15     12      9   180.00   0.00000   2 ;     O8-   C11-    C2-    N2
     9     24     15     43      9     0.00   2.84512   1 ;     O8-   C11-    C2-   C30
     9     24     15     43      9   180.00   0.83680   2 ;     O8-   C11-    C2-   C30
     9     24     15     43      9   180.00   1.84096   3 ;     O8-   C11-    C2-   C30
     9     24     15     48      9     0.00   3.34720   1 ;     O8-   C11-    C2-    H2
     9     24     15     48      9   180.00   0.33472   3 ;     O8-   C11-    C2-    H2
    10     13     34     35      9     0.00   0.41840   3 ;      N-     C-   C21-   C22
    10     13     34     36      9     0.00   0.41840   3 ;      N-     C-   C21-   C23
    10     13     34     75      9     0.00   0.65084   3 ;      N-     C-   C21-   H29
    10     19     16     28      9   180.00   0.00000   4 ;      N-    C6-    C3-   C15
    10     19     16     28      9   180.00   2.97064   2 ;      N-    C6-    C3-   C15
    10     19     16     49      9   180.00   0.00000   2 ;      N-    C6-    C3-    H3
    11     14     31     32      9     0.00   0.41840   3 ;     N1-    C1-   C18-   C19
    11     14     31     33      9     0.00   0.41840   3 ;     N1-    C1-   C18-   C20
    11     14     31     68      9     0.00   0.65084   3 ;     N1-    C1-   C18-   H22
    11     20     18     37      9   180.00   0.00000   4 ;     N1-    C7-    C5-   C24
    11     20     18     37      9   180.00   2.97064   2 ;     N1-    C7-    C5-   C24
    11     20     18     51      9   180.00   0.00000   2 ;     N1-    C7-    C5-    H5
    12     15     43     44      9     0.00   0.41840   3 ;     N2-    C2-   C30-   C31
    12     15     43     45      9     0.00   0.41840   3 ;     N2-    C2-   C30-   C32
    12     15     43     96      9     0.00   0.65084   3 ;     N2-    C2-   C30-   H50
    12     21     17     40      9   180.00   0.00000   4 ;     N2-    C8-    C4-   C27
    12     21     17     40      9   180.00   2.97064   2 ;     N2-    C8-    C4-   C27
    12     21     17     50      9   180.00   0.00000   2 ;     N2-    C8-    C4-    H4
    13     10     19     16      9     0.00   2.09200   3 ;      C-     N-    C6-    C3
    13     10     19     16      9     0.00  12.25912   1 ;      C-     N-    C6-    C3
    13     10     19     16      9   180.00   5.89944   2 ;      C-     N-    C6-    C3
    13     10     25     52      9     0.00   0.00000   0 ;      C-     N-   C12-    H6
    13     10     25     53      9     0.00   0.00000   0 ;      C-     N-   C12-    H7
    13     10     25     54      9     0.00   0.00000   0 ;      C-     N-   C12-    H8
    13     23      2     17      9     0.00   3.13800   3 ;      C-   C10-    O1-    C4
    13     23      2     17      9   180.00   7.90776   1 ;      C-   C10-    O1-    C4
    13     23      2     17      9   180.00  13.76536   2 ;      C-   C10-    O1-    C4
    13     34     35     76      9     0.00   0.54392   3 ;      C-   C21-   C22-   H30
    13     34     35     77      9     0.00   0.54392   3 ;      C-   C21-   C22-   H31
    13     34     35     78      9     0.00   0.54392   3 ;      C-   C21-   C22-   H32
    13     34     36     79      9     0.00   0.54392   3 ;      C-   C21-   C23-   H33
    13     34     36     80      9     0.00   0.54392   3 ;      C-   C21-   C23-   H34
    13     34     36     81      9     0.00   0.54392   3 ;      C-   C21-   C23-   H35
    14     11     20     18      9     0.00   2.09200   3 ;     C1-    N1-    C7-    C5
    14     11     20     18      9     0.00  12.25912   1 ;     C1-    N1-    C7-    C5
    14     11     20     18      9   180.00   5.89944   2 ;     C1-    N1-    C7-    C5
    14     11     26     55      9     0.00   0.00000   0 ;     C1-    N1-   C13-    H9
    14     11     26     56      9     0.00   0.00000   0 ;     C1-    N1-   C13-   H10
    14     11     26     57      9     0.00   0.00000   0 ;     C1-    N1-   C13-   H11
    14     31     32     69      9     0.00   0.54392   3 ;     C1-   C18-   C19-   H23
    14     31     32     70      9     0.00   0.54392   3 ;     C1-   C18-   C19-   H24
    14     31     32     71      9     0.00   0.54392   3 ;     C1-   C18-   C19-   H25
    14     31     33     72      9     0.00   0.54392   3 ;     C1-   C18-   C20-   H26
    14     31     33     73      9     0.00   0.54392   3 ;     C1-   C18-   C20-   H27
    14     31     33     74      9     0.00   0.54392   3 ;     C1-   C18-   C20-   H28
    15     12     21     17      9     0.00   2.09200   3 ;     C2-    N2-    C8-    C4
    15     12     21     17      9     0.00  12.25912   1 ;     C2-    N2-    C8-    C4
    15     12     21     17      9   180.00   5.89944   2 ;     C2-    N2-    C8-    C4
    15     12     27     58      9     0.00   0.00000   0 ;     C2-    N2-   C14-   H12
    15     12     27     59      9     0.00   0.00000   0 ;     C2-    N2-   C14-   H13
    15     12     27     60      9     0.00   0.00000   0 ;     C2-    N2-   C14-   H14
    15     24      3     18      9     0.00   3.13800   3 ;     C2-   C11-    O2-    C5
    15     24      3     18      9   180.00   7.90776   1 ;     C2-   C11-    O2-    C5
    15     24      3     18      9   180.00  13.76536   2 ;     C2-   C11-    O2-    C5
    15     43     44     97      9     0.00   0.54392   3 ;     C2-   C30-   C31-   H51
    15     43     44     98      9     0.00   0.54392   3 ;     C2-   C30-   C31-   H52
    15     43     44     99      9     0.00   0.54392   3 ;     C2-   C30-   C31-   H53
    15     43     45    100      9     0.00   0.54392   3 ;     C2-   C30-   C32-   H54
    15     43     45    101      9     0.00   0.54392   3 ;     C2-   C30-   C32-   H55
    15     43     45    102      9     0.00   0.54392   3 ;     C2-   C30-   C32-   H56
    16      1     22      7      9   180.00   5.85760   1 ;     C3-     O-    C9-    O6
    16      1     22      7      9   180.00  11.29680   2 ;     C3-     O-    C9-    O6
    16      1     22     14      9     0.00   3.13800   3 ;     C3-     O-    C9-    C1
    16      1     22     14      9   180.00   7.90776   1 ;     C3-     O-    C9-    C1
    16      1     22     14      9   180.00  13.76536   2 ;     C3-     O-    C9-    C1
    16     19     10     25      9     0.00   2.09200   3 ;     C3-    C6-     N-   C12
    16     19     10     25      9     0.00  12.25912   1 ;     C3-    C6-     N-   C12
    16     19     10     25      9   180.00   5.89944   2 ;     C3-    C6-     N-   C12
    16     28     29     62      9     0.00   0.54392   3 ;     C3-   C15-   C16-   H16
    16     28     29     63      9     0.00   0.54392   3 ;     C3-   C15-   C16-   H17
    16     28     29     64      9     0.00   0.54392   3 ;     C3-   C15-   C16-   H18
    16     28     30     65      9     0.00   0.54392   3 ;     C3-   C15-   C17-   H19
    16     28     30     66      9     0.00   0.54392   3 ;     C3-   C15-   C17-   H20
    16     28     30     67      9     0.00   0.54392   3 ;     C3-   C15-   C17-   H21
    17     21     12     27      9     0.00   2.09200   3 ;     C4-    C8-    N2-   C14
    17     21     12     27      9     0.00  12.25912   1 ;     C4-    C8-    N2-   C14
    17     21     12     27      9   180.00   5.89944   2 ;     C4-    C8-    N2-   C14
    17     40     41     90      9     0.00   0.54392   3 ;     C4-   C27-   C28-   H44
    17     40     41     91      9     0.00   0.54392   3 ;     C4-   C27-   C28-   H45
    17     40     41     92      9     0.00   0.54392   3 ;     C4-   C27-   C28-   H46
    17     40     42     93      9     0.00   0.54392   3 ;     C4-   C27-   C29-   H47
    17     40     42     94      9     0.00   0.54392   3 ;     C4-   C27-   C29-   H48
    17     40     42     95      9     0.00   0.54392   3 ;     C4-   C27-   C29-   H49
    18     20     11     26      9     0.00   2.09200   3 ;     C5-    C7-    N1-   C13
    18     20     11     26      9     0.00  12.25912   1 ;     C5-    C7-    N1-   C13
    18     20     11     26      9   180.00   5.89944   2 ;     C5-    C7-    N1-   C13
    18     37     38     83      9     0.00   0.54392   3 ;     C5-   C24-   C25-   H37
    18     37     38     84      9     0.00   0.54392   3 ;     C5-   C24-   C25-   H38
    18     37     38     85      9     0.00   0.54392   3 ;     C5-   C24-   C25-   H39
    18     37     39     86      9     0.00   0.54392   3 ;     C5-   C24-   C26-   H40
    18     37     39     87      9     0.00   0.54392   3 ;     C5-   C24-   C26-   H41
    18     37     39     88      9     0.00   0.54392   3 ;     C5-   C24-   C26-   H42
    19     10     13     23      9     0.00   2.67776   1 ;     C6-     N-     C-   C10
    19     10     13     23      9   180.00   1.63176   2 ;     C6-     N-     C-   C10
    19     10     13     34      9     0.00   9.45584   1 ;     C6-     N-     C-   C21
    19     10     13     34      9   180.00   0.12552   3 ;     C6-     N-     C-   C21
    19     10     13     34      9   180.00   2.71960   4 ;     C6-     N-     C-   C21
    19     10     13     46      9   180.00   0.00000   2 ;     C6-     N-     C-     H
    19     10     25     52      9   180.00   0.00000   2 ;     C6-     N-   C12-    H6
    19     10     25     53      9   180.00   0.00000   2 ;     C6-     N-   C12-    H7
    19     10     25     54      9   180.00   0.00000   2 ;     C6-     N-   C12-    H8
    19     16     28     29      9     0.00   0.00000   0 ;     C6-    C3-   C15-   C16
    19     16     28     29      9     0.00   0.16736   2 ;     C6-    C3-   C15-   C16
    19     16     28     29      9   180.00   1.92464   1 ;     C6-    C3-   C15-   C16
    19     16     28     30      9     0.00   0.00000   0 ;     C6-    C3-   C15-   C17
    19     16     28     30      9     0.00   0.16736   2 ;     C6-    C3-   C15-   C17
    19     16     28     30      9   180.00   1.92464   1 ;     C6-    C3-   C15-   C17
    19     16     28     61      9     0.00   0.65084   3 ;     C6-    C3-   C15-   H15
    20     11     14     22      9     0.00   2.67776   1 ;     C7-    N1-    C1-    C9
    20     11     14     22      9   180.00   1.63176   2 ;     C7-    N1-    C1-    C9
    20     11     14     31      9     0.00   9.45584   1 ;     C7-    N1-    C1-   C18
    20     11     14     31      9   180.00   0.12552   3 ;     C7-    N1-    C1-   C18
    20     11     14     31      9   180.00   2.71960   4 ;     C7-    N1-    C1-   C18
    20     11     14     47      9   180.00   0.00000   2 ;     C7-    N1-    C1-    H1
    20     11     26     55      9   180.00   0.00000   2 ;     C7-    N1-   C13-    H9
    20     11     26     56      9   180.00   0.00000   2 ;     C7-    N1-   C13-   H10
    20     11     26     57      9   180.00   0.00000   2 ;     C7-    N1-   C13-   H11
    20     18      3     24      9     0.00   1.60387   3 ;     C7-    C5-    O2-   C11
    20     18     37     38      9     0.00   0.00000   0 ;     C7-    C5-   C24-   C25
    20     18     37     38      9     0.00   0.16736   2 ;     C7-    C5-   C24-   C25
    20     18     37     38      9   180.00   1.92464   1 ;     C7-    C5-   C24-   C25
    20     18     37     39      9     0.00   0.00000   0 ;     C7-    C5-   C24-   C26
    20     18     37     39      9     0.00   0.16736   2 ;     C7-    C5-   C24-   C26
    20     18     37     39      9   180.00   1.92464   1 ;     C7-    C5-   C24-   C26
    20     18     37     82      9     0.00   0.65084   3 ;     C7-    C5-   C24-   H36
    21     12     15     24      9     0.00   2.67776   1 ;     C8-    N2-    C2-   C11
    21     12     15     24      9   180.00   1.63176   2 ;     C8-    N2-    C2-   C11
    21     12     15     43      9     0.00   9.45584   1 ;     C8-    N2-    C2-   C30
    21     12     15     43      9   180.00   0.12552   3 ;     C8-    N2-    C2-   C30
    21     12     15     43      9   180.00   2.71960   4 ;     C8-    N2-    C2-   C30
    21     12     15     48      9   180.00   0.00000   2 ;     C8-    N2-    C2-    H2
    21     12     27     58      9   180.00   0.00000   2 ;     C8-    N2-   C14-   H12
    21     12     27     59      9   180.00   0.00000   2 ;     C8-    N2-   C14-   H13
    21     12     27     60      9   180.00   0.00000   2 ;     C8-    N2-   C14-   H14
    21     17      2     23      9     0.00   1.60387   3 ;     C8-    C4-    O1-   C10
    21     17     40     41      9     0.00   0.00000   0 ;     C8-    C4-   C27-   C28
    21     17     40     41      9     0.00   0.16736   2 ;     C8-    C4-   C27-   C28
    21     17     40     41      9   180.00   1.92464   1 ;     C8-    C4-   C27-   C28
    21     17     40     42      9     0.00   0.00000   0 ;     C8-    C4-   C27-   C29
    21     17     40     42      9     0.00   0.16736   2 ;     C8-    C4-   C27-   C29
    21     17     40     42      9   180.00   1.92464   1 ;     C8-    C4-   C27-   C29
    21     17     40     89      9     0.00   0.65084   3 ;     C8-    C4-   C27-   H43
    22      1     16     19      9     0.00   1.60387   3 ;     C9-     O-    C3-    C6
    22      1     16     28      9     0.00   1.60247   3 ;     C9-     O-    C3-   C15
    22      1     16     28      9   180.00   3.34720   1 ;     C9-     O-    C3-   C15
    22      1     16     49      9     0.00   1.60387   3 ;     C9-     O-    C3-    H3
    22     14     11     26      9     0.00   0.00000   0 ;     C9-    C1-    N1-   C13
    22     14     31     32      9     0.00   0.00000   0 ;     C9-    C1-   C18-   C19
    22     14     31     32      9     0.00   0.16736   2 ;     C9-    C1-   C18-   C19
    22     14     31     32      9   180.00   1.92464   1 ;     C9-    C1-   C18-   C19
    22     14     31     33      9     0.00   0.00000   0 ;     C9-    C1-   C18-   C20
    22     14     31     33      9     0.00   0.16736   2 ;     C9-    C1-   C18-   C20
    22     14     31     33      9   180.00   1.92464   1 ;     C9-    C1-   C18-   C20
    22     14     31     68      9     0.00   0.65084   3 ;     C9-    C1-   C18-   H22
    23      2     17     40      9     0.00   1.60247   3 ;    C10-    O1-    C4-   C27
    23      2     17     40      9   180.00   3.34720   1 ;    C10-    O1-    C4-   C27
    23      2     17     50      9     0.00   1.60387   3 ;    C10-    O1-    C4-    H4
    23     13     10     25      9     0.00   0.00000   0 ;    C10-     C-     N-   C12
    23     13     34     35      9     0.00   0.00000   0 ;    C10-     C-   C21-   C22
    23     13     34     35      9     0.00   0.16736   2 ;    C10-     C-   C21-   C22
    23     13     34     35      9   180.00   1.92464   1 ;    C10-     C-   C21-   C22
    23     13     34     36      9     0.00   0.00000   0 ;    C10-     C-   C21-   C23
    23     13     34     36      9     0.00   0.16736   2 ;    C10-     C-   C21-   C23
    23     13     34     36      9   180.00   1.92464   1 ;    C10-     C-   C21-   C23
    23     13     34     75      9     0.00   0.65084   3 ;    C10-     C-   C21-   H29
    24      3     18     37      9     0.00   1.60247   3 ;    C11-    O2-    C5-   C24
    24      3     18     37      9   180.00   3.34720   1 ;    C11-    O2-    C5-   C24
    24      3     18     51      9     0.00   1.60387   3 ;    C11-    O2-    C5-    H5
    24     15     12     27      9     0.00   0.00000   0 ;    C11-    C2-    N2-   C14
    24     15     43     44      9     0.00   0.00000   0 ;    C11-    C2-   C30-   C31
    24     15     43     44      9     0.00   0.16736   2 ;    C11-    C2-   C30-   C31
    24     15     43     44      9   180.00   1.92464   1 ;    C11-    C2-   C30-   C31
    24     15     43     45      9     0.00   0.00000   0 ;    C11-    C2-   C30-   C32
    24     15     43     45      9     0.00   0.16736   2 ;    C11-    C2-   C30-   C32
    24     15     43     45      9   180.00   1.92464   1 ;    C11-    C2-   C30-   C32
    24     15     43     96      9     0.00   0.65084   3 ;    C11-    C2-   C30-   H50
    25     10     13     34      9     0.00   0.00000   0 ;    C12-     N-     C-   C21
    25     10     13     46      9     0.00   0.00000   0 ;    C12-     N-     C-     H
    26     11     14     31      9     0.00   0.00000   0 ;    C13-    N1-    C1-   C18
    26     11     14     47      9     0.00   0.00000   0 ;    C13-    N1-    C1-    H1
    27     12     15     43      9     0.00   0.00000   0 ;    C14-    N2-    C2-   C30
    27     12     15     48      9     0.00   0.00000   0 ;    C14-    N2-    C2-    H2
    29     28     16     49      9     0.00   0.65084   3 ;    C16-   C15-    C3-    H3
    29     28     30     65      9     0.00   0.54392   3 ;    C16-   C15-   C17-   H19
    29     28     30     66      9     0.00   0.54392   3 ;    C16-   C15-   C17-   H20
    29     28     30     67      9     0.00   0.54392   3 ;    C16-   C15-   C17-   H21
    30     28     16     49      9     0.00   0.65084   3 ;    C17-   C15-    C3-    H3
    30     28     29     62      9     0.00   0.54392   3 ;    C17-   C15-   C16-   H16
    30     28     29     63      9     0.00   0.54392   3 ;    C17-   C15-   C16-   H17
    30     28     29     64      9     0.00   0.54392   3 ;    C17-   C15-   C16-   H18
    32     31     14     47      9     0.00   0.65084   3 ;    C19-   C18-    C1-    H1
    32     31     33     72      9     0.00   0.54392   3 ;    C19-   C18-   C20-   H26
    32     31     33     73      9     0.00   0.54392   3 ;    C19-   C18-   C20-   H27
    32     31     33     74      9     0.00   0.54392   3 ;    C19-   C18-   C20-   H28
    33     31     14     47      9     0.00   0.65084   3 ;    C20-   C18-    C1-    H1
    33     31     32     69      9     0.00   0.54392   3 ;    C20-   C18-   C19-   H23
    33     31     32     70      9     0.00   0.54392   3 ;    C20-   C18-   C19-   H24
    33     31     32     71      9     0.00   0.54392   3 ;    C20-   C18-   C19-   H25
    35     34     13     46      9     0.00   0.65084   3 ;    C22-   C21-     C-     H
    35     34     36     79      9     0.00   0.54392   3 ;    C22-   C21-   C23-   H33
    35     34     36     80      9     0.00   0.54392   3 ;    C22-   C21-   C23-   H34
    35     34     36     81      9     0.00   0.54392   3 ;    C22-   C21-   C23-   H35
    36     34     13     46      9     0.00   0.65084   3 ;    C23-   C21-     C-     H
    36     34     35     76      9     0.00   0.54392   3 ;    C23-   C21-   C22-   H30
    36     34     35     77      9     0.00   0.54392   3 ;    C23-   C21-   C22-   H31
    36     34     35     78      9     0.00   0.54392   3 ;    C23-   C21-   C22-   H32
    38     37     18     51      9     0.00   0.65084   3 ;    C25-   C24-    C5-    H5
    38     37     39     86      9     0.00   0.54392   3 ;    C25-   C24-   C26-   H40
    38     37     39     87      9     0.00   0.54392   3 ;    C25-   C24-   C26-   H41
    38     37     39     88      9     0.00   0.54392   3 ;    C25-   C24-   C26-   H42
    39     37     18     51      9     0.00   0.65084   3 ;    C26-   C24-    C5-    H5
    39     37     38     83      9     0.00   0.54392   3 ;    C26-   C24-   C25-   H37
    39     37     38     84      9     0.00   0.54392   3 ;    C26-   C24-   C25-   H38
    39     37     38     85      9     0.00   0.54392   3 ;    C26-   C24-   C25-   H39
    41     40     17     50      9     0.00   0.65084   3 ;    C28-   C27-    C4-    H4
    41     40     42     93      9     0.00   0.54392   3 ;    C28-   C27-   C29-   H47
    41     40     42     94      9     0.00   0.54392   3 ;    C28-   C27-   C29-   H48
    41     40     42     95      9     0.00   0.54392   3 ;    C28-   C27-   C29-   H49
    42     40     17     50      9     0.00   0.65084   3 ;    C29-   C27-    C4-    H4
    42     40     41     90      9     0.00   0.54392   3 ;    C29-   C27-   C28-   H44
    42     40     41     91      9     0.00   0.54392   3 ;    C29-   C27-   C28-   H45
    42     40     41     92      9     0.00   0.54392   3 ;    C29-   C27-   C28-   H46
    44     43     15     48      9     0.00   0.65084   3 ;    C31-   C30-    C2-    H2
    44     43     45    100      9     0.00   0.54392   3 ;    C31-   C30-   C32-   H54
    44     43     45    101      9     0.00   0.54392   3 ;    C31-   C30-   C32-   H55
    44     43     45    102      9     0.00   0.54392   3 ;    C31-   C30-   C32-   H56
    45     43     15     48      9     0.00   0.65084   3 ;    C32-   C30-    C2-    H2
    45     43     44     97      9     0.00   0.54392   3 ;    C32-   C30-   C31-   H51
    45     43     44     98      9     0.00   0.54392   3 ;    C32-   C30-   C31-   H52
    45     43     44     99      9     0.00   0.54392   3 ;    C32-   C30-   C31-   H53
    46     13     34     75      9     0.00   0.65084   3 ;      H-     C-   C21-   H29
    47     14     31     68      9     0.00   0.65084   3 ;     H1-    C1-   C18-   H22
    48     15     43     96      9     0.00   0.65084   3 ;     H2-    C2-   C30-   H50
    49     16     28     61      9     0.00   0.65084   3 ;     H3-    C3-   C15-   H15
    50     17     40     89      9     0.00   0.65084   3 ;     H4-    C4-   C27-   H43
    51     18     37     82      9     0.00   0.65084   3 ;     H5-    C5-   C24-   H36
    61     28     29     62      9     0.00   0.50208   3 ;    H15-   C15-   C16-   H16
    61     28     29     63      9     0.00   0.50208   3 ;    H15-   C15-   C16-   H17
    61     28     29     64      9     0.00   0.50208   3 ;    H15-   C15-   C16-   H18
    61     28     30     65      9     0.00   0.50208   3 ;    H15-   C15-   C17-   H19
    61     28     30     66      9     0.00   0.50208   3 ;    H15-   C15-   C17-   H20
    61     28     30     67      9     0.00   0.50208   3 ;    H15-   C15-   C17-   H21
    68     31     32     69      9     0.00   0.50208   3 ;    H22-   C18-   C19-   H23
    68     31     32     70      9     0.00   0.50208   3 ;    H22-   C18-   C19-   H24
    68     31     32     71      9     0.00   0.50208   3 ;    H22-   C18-   C19-   H25
    68     31     33     72      9     0.00   0.50208   3 ;    H22-   C18-   C20-   H26
    68     31     33     73      9     0.00   0.50208   3 ;    H22-   C18-   C20-   H27
    68     31     33     74      9     0.00   0.50208   3 ;    H22-   C18-   C20-   H28
    75     34     35     76      9     0.00   0.50208   3 ;    H29-   C21-   C22-   H30
    75     34     35     77      9     0.00   0.50208   3 ;    H29-   C21-   C22-   H31
    75     34     35     78      9     0.00   0.50208   3 ;    H29-   C21-   C22-   H32
    75     34     36     79      9     0.00   0.50208   3 ;    H29-   C21-   C23-   H33
    75     34     36     80      9     0.00   0.50208   3 ;    H29-   C21-   C23-   H34
    75     34     36     81      9     0.00   0.50208   3 ;    H29-   C21-   C23-   H35
    82     37     38     83      9     0.00   0.50208   3 ;    H36-   C24-   C25-   H37
    82     37     38     84      9     0.00   0.50208   3 ;    H36-   C24-   C25-   H38
    82     37     38     85      9     0.00   0.50208   3 ;    H36-   C24-   C25-   H39
    82     37     39     86      9     0.00   0.50208   3 ;    H36-   C24-   C26-   H40
    82     37     39     87      9     0.00   0.50208   3 ;    H36-   C24-   C26-   H41
    82     37     39     88      9     0.00   0.50208   3 ;    H36-   C24-   C26-   H42
    89     40     41     90      9     0.00   0.50208   3 ;    H43-   C27-   C28-   H44
    89     40     41     91      9     0.00   0.50208   3 ;    H43-   C27-   C28-   H45
    89     40     41     92      9     0.00   0.50208   3 ;    H43-   C27-   C28-   H46
    89     40     42     93      9     0.00   0.50208   3 ;    H43-   C27-   C29-   H47
    89     40     42     94      9     0.00   0.50208   3 ;    H43-   C27-   C29-   H48
    89     40     42     95      9     0.00   0.50208   3 ;    H43-   C27-   C29-   H49
    96     43     44     97      9     0.00   0.50208   3 ;    H50-   C30-   C31-   H51
    96     43     44     98      9     0.00   0.50208   3 ;    H50-   C30-   C31-   H52
    96     43     44     99      9     0.00   0.50208   3 ;    H50-   C30-   C31-   H53
    96     43     45    100      9     0.00   0.50208   3 ;    H50-   C30-   C32-   H54
    96     43     45    101      9     0.00   0.50208   3 ;    H50-   C30-   C32-   H55
    96     43     45    102      9     0.00   0.50208   3 ;    H50-   C30-   C32-   H56

[ dihedrals ] ; impropers
; treated as propers in GROMACS to use correct AMBER analytical function
;    i      j      k      l   func   phase     kd      pn
     1     22      7     14      4   180.00   4.60240   2 ;      O-    C9-    O6-    C1
    13      8     23      2      4   180.00   4.60240   2 ;      C-    O7-   C10-    O1
    15      9     24      3      4   180.00   4.60240   2 ;     C2-    O8-   C11-    O2
    16     10     19      4      4   180.00  43.93200   2 ;     C3-     N-    C6-    O3
    17     12     21      6      4   180.00  43.93200   2 ;     C4-    N2-    C8-    O5
    18     11     20      5      4   180.00  43.93200   2 ;     C5-    N1-    C7-    O4
    19     13     10     25      4   180.00   4.60240   2 ;     C6-     C-     N-   C12
    20     14     11     26      4   180.00   4.60240   2 ;     C7-    C1-    N1-   C13
    21     15     12     27      4   180.00   4.60240   2 ;     C8-    C2-    N2-   C14
