WAR-Site2_1h.pdb
    39
  10.9060000   2.1220000 -13.2230000   9.2830000   3.7870000 -14.7000000
   9.1120000   2.4020000 -14.8430000   9.9000000   1.5450000 -14.1280000
  11.7460000   1.3050000 -12.4640000  12.6770000   1.8770000 -11.6270000
  12.7830000   3.2580000 -11.5360000  11.9600000   4.0750000 -12.2800000
  11.0140000   3.5180000 -13.1310000  10.2010000   4.3050000 -13.8680000
   8.5740000   4.5420000 -15.3420000   9.7600000   0.2050000 -14.2490000
   9.6680000   0.0170000 -15.1920000   8.0660000   1.8620000 -15.7830000
   7.9650000   2.7710000 -17.0090000   6.9940000   2.1780000 -17.9970000
   5.7430000   2.9310000 -18.3700000   7.2170000   1.0990000 -18.4890000
   6.7350000   1.8160000 -15.0820000   6.2150000   2.9620000 -14.5080000
   4.9930000   2.9200000 -13.8640000   4.2900000   1.7320000 -13.7940000
   4.8090000   0.5880000 -14.3670000   6.0290000   0.6310000 -15.0160000
  11.6690000   0.2780000 -12.5300000  13.2990000   1.2760000 -11.0640000
  13.4850000   3.6770000 -10.9050000  12.0460000   5.1010000 -12.2050000
   8.3400000   0.8750000 -16.0920000   8.9280000   2.8610000 -17.4660000
   7.6200000   3.7380000 -16.7080000   5.7140000   3.8600000 -17.8400000
   4.8850000   2.3460000 -18.1120000   5.7420000   3.1210000 -19.4230000
   6.7400000   3.8490000 -14.5610000   4.6060000   3.7750000 -13.4360000
   3.3770000   1.7000000 -13.3130000   4.2860000  -0.3000000 -14.3110000
   6.4120000  -0.2230000 -15.4510000
