%VERSION  VERSION_STAMP = V0001.000  DATE = 09/04/25  05:23:32                  
%FLAG TITLE                                                                     
%FORMAT(20a4)                                                                   
WAR-Site2_1h.pdb                                                                
%FLAG POINTERS                                                                  
%FORMAT(10I8)                                                                   
      39       8      16      25      33      35      66      58       0       0
     204       1      25      35      58      15      27      30      11       0
       0       0       0       0       0       0       0       0      39       0
       0
%FLAG ATOM_NAME                                                                 
%FORMAT(20a4)                                                                   
C   C1  C2  C3  C4  C5  C6  C7  C8  O   O1  O2  H   C9  C10 C11 C12 O3  C13 C14 
C15 C16 C17 C18 H1  H2  H3  H4  H5  H6  H7  H8  H9  H10 H11 H12 H13 H14 H15 
%FLAG CHARGE                                                                    
%FORMAT(5E16.8)                                                                 
 -2.87547894E+00  1.36448582E+01 -5.76553572E+00  4.69953117E+00 -9.11115000E-01
 -3.02490180E+00 -1.36667250E+00 -2.80623420E+00  2.93561253E+00 -5.90766966E+00
 -1.07420459E+01 -8.76674853E+00  8.14536810E+00  9.07470540E-01 -3.23263602E+00
  1.04249778E+01 -3.68272683E+00 -9.95119803E+00 -1.79125209E+00 -2.27778750E+00
 -2.33245440E+00 -2.31423210E+00 -2.33245440E+00 -2.27778750E+00  2.86090110E+00
  2.60578890E+00  2.58756660E+00  2.95201260E+00  1.30653891E+00  1.58898456E+00
  1.58898456E+00  1.20327314E+00  1.20327314E+00  1.20327314E+00  2.58756660E+00
  2.44178820E+00  2.42356590E+00  2.44178820E+00  2.58756660E+00
%FLAG ATOMIC_NUMBER                                                             
%FORMAT(10I8)                                                                   
       6       6       6       6       6       6       6       6       6       8
       8       8       1       6       6       6       6       8       6       6
       6       6       6       6       1       1       1       1       1       1
       1       1       1       1       1       1       1       1       1
%FLAG MASS                                                                      
%FORMAT(5E16.8)                                                                 
  1.20100000E+01  1.20100000E+01  1.20100000E+01  1.20100000E+01  1.20100000E+01
  1.20100000E+01  1.20100000E+01  1.20100000E+01  1.20100000E+01  1.60000000E+01
  1.60000000E+01  1.60000000E+01  1.00800000E+00  1.20100000E+01  1.20100000E+01
  1.20100000E+01  1.20100000E+01  1.60000000E+01  1.20100000E+01  1.20100000E+01
  1.20100000E+01  1.20100000E+01  1.20100000E+01  1.20100000E+01  1.00800000E+00
  1.00800000E+00  1.00800000E+00  1.00800000E+00  1.00800000E+00  1.00800000E+00
  1.00800000E+00  1.00800000E+00  1.00800000E+00  1.00800000E+00  1.00800000E+00
  1.00800000E+00  1.00800000E+00  1.00800000E+00  1.00800000E+00
%FLAG ATOM_TYPE_INDEX                                                           
%FORMAT(10I8)                                                                   
       1       1       1       1       1       1       1       1       1       2
       3       4       5       6       6       1       6       3       1       1
       1       1       1       1       7       7       7       7       8       8
       8       8       8       8       7       7       7       7       7
%FLAG NUMBER_EXCLUDED_ATOMS                                                     
%FORMAT(10I8)                                                                   
      15      11      16      13       9       7       7       5       6       3
       1       2       1      14      12       9       6       5      12       9
       7       7       5       5       1       1       1       1       2       1
       1       2       1       1       1       1       1       1       1
%FLAG NONBONDED_PARM_INDEX                                                      
%FORMAT(10I8)                                                                   
       1       2       4       7      11      16      22      29       2       3
       5       8      12      17      23      30       4       5       6       9
      13      18      24      31       7       8       9      10      14      19
      25      32      11      12      13      14      15      20      26      33
      16      17      18      19      20      21      27      34      22      23
      24      25      26      27      28      35      29      30      31      32
      33      34      35      36
%FLAG RESIDUE_LABEL                                                             
%FORMAT(20a4)                                                                   
UNL 
%FLAG RESIDUE_POINTER                                                           
%FORMAT(10I8)                                                                   
       1
%FLAG BOND_FORCE_CONSTANT                                                       
%FORMAT(5E16.8)                                                                 
  2.88790000E+02  3.54250000E+02  5.90600000E+02  2.81780000E+02  3.51310000E+02
  2.55140000E+02  3.86240000E+02  3.67310000E+02  3.60690000E+02  3.43340000E+02
  5.35510000E+02  2.28890000E+02  2.43910000E+02  3.45250000E+02  2.34850000E+02
%FLAG BOND_EQUIL_VALUE                                                          
%FORMAT(5E16.8)                                                                 
  1.46100000E+00  1.39860000E+00  1.21900000E+00  1.46870000E+00  1.36210000E+00
  1.50020000E+00  1.37300000E+00  1.34920000E+00  1.08600000E+00  1.36880000E+00
  9.72500000E-01  1.53540000E+00  1.51470000E+00  1.09620000E+00  1.52700000E+00
%FLAG ANGLE_FORCE_CONSTANT                                                      
%FORMAT(5E16.8)                                                                 
  6.16400000E+01  7.75200000E+01  6.36700000E+01  7.90000000E+01  4.49000000E+01
  6.06100000E+01  6.22000000E+01  8.93600000E+01  7.83600000E+01  7.87000000E+01
  6.04600000E+01  6.08100000E+01  4.40400000E+01  7.88100000E+01  6.20200000E+01
  5.98600000E+01  6.85400000E+01  1.01260000E+02  6.03600000E+01  4.32700000E+01
  6.07400000E+01  6.03300000E+01  7.64500000E+01  5.91500000E+01  4.36300000E+01
  4.36100000E+01  3.58000000E+01
%FLAG ANGLE_EQUIL_VALUE                                                         
%FORMAT(5E16.8)                                                                 
  2.16927066E+00  2.08130603E+00  2.09474507E+00  2.07886256E+00  2.09230160E+00
  2.05111182E+00  2.11743436E+00  2.11691076E+00  2.16525640E+00  1.99142153E+00
  1.97152477E+00  1.97676076E+00  1.92614619E+00  2.15897321E+00  2.10888224E+00
  2.22896094E+00  1.87099376E+00  2.15024656E+00  1.94482122E+00  1.91427794E+00
  2.10888224E+00  1.96209999E+00  2.14501057E+00  2.03645104E+00  1.90153704E+00
  1.93085858E+00  1.88024401E+00
%FLAG DIHEDRAL_FORCE_CONSTANT                                                   
%FORMAT(5E16.8)                                                                 
  4.00000000E+00  8.55000000E-01  3.62500000E+00  9.80000000E-01  0.00000000E+00
  2.70000000E+00  1.55555556E-01  0.00000000E+00  3.77000000E+00  1.28000000E+00
  2.87500000E+00  1.57000000E-01  3.30000000E-01  7.00000000E-01  1.73000000E+00
  2.15000000E+00  8.00000000E-02  6.80000000E-01  2.00000000E-01  4.40000000E-01
  2.62000000E-01  2.40000000E-01  0.00000000E+00  8.20000000E-01  4.03000000E+00
  3.66000000E+00  0.00000000E+00  1.20000000E-01  1.10000000E+00  1.05000000E+01
%FLAG DIHEDRAL_PERIODICITY                                                      
%FORMAT(5E16.8)                                                                 
  2.00000000E+00  2.00000000E+00  2.00000000E+00  2.00000000E+00  3.00000000E+00
  2.00000000E+00  3.00000000E+00  2.00000000E+00  2.00000000E+00  2.00000000E+00
  2.00000000E+00  3.00000000E+00  1.00000000E+00  2.00000000E+00  1.00000000E+00
  2.00000000E+00  3.00000000E+00  1.00000000E+00  2.00000000E+00  3.00000000E+00
  2.00000000E+00  2.00000000E+00  3.00000000E+00  1.00000000E+00  1.00000000E+00
  2.00000000E+00  1.00000000E+00  3.00000000E+00  2.00000000E+00  2.00000000E+00
%FLAG DIHEDRAL_PHASE                                                            
%FORMAT(5E16.8)                                                                 
  3.14159400E+00  3.14159400E+00  3.14159400E+00  3.14159400E+00  0.00000000E+00
  3.14159400E+00  0.00000000E+00  0.00000000E+00  3.14159400E+00  3.14159400E+00
  3.14159400E+00  3.14159400E+00  3.14159400E+00  3.14159400E+00  0.00000000E+00
  3.14159400E+00  0.00000000E+00  0.00000000E+00  3.14159400E+00  3.14159400E+00
  3.14159400E+00  3.14159400E+00  3.14159400E+00  0.00000000E+00  0.00000000E+00
  3.14159400E+00  0.00000000E+00  0.00000000E+00  3.14159400E+00  3.14159400E+00
%FLAG SCEE_SCALE_FACTOR                                                         
%FORMAT(5E16.8)                                                                 
  1.20000000E+00  1.20000000E+00  1.20000000E+00  1.20000000E+00  1.20000000E+00
  1.20000000E+00  1.20000000E+00  1.20000000E+00  1.20000000E+00  1.20000000E+00
  1.20000000E+00  1.20000000E+00  1.20000000E+00  1.20000000E+00  1.20000000E+00
  1.20000000E+00  1.20000000E+00  1.20000000E+00  1.20000000E+00  1.20000000E+00
  1.20000000E+00  1.20000000E+00  1.20000000E+00  1.20000000E+00  1.20000000E+00
  1.20000000E+00  1.20000000E+00  1.20000000E+00  0.00000000E+00  0.00000000E+00
%FLAG SCNB_SCALE_FACTOR                                                         
%FORMAT(5E16.8)                                                                 
  2.00000000E+00  2.00000000E+00  2.00000000E+00  2.00000000E+00  2.00000000E+00
  2.00000000E+00  2.00000000E+00  2.00000000E+00  2.00000000E+00  2.00000000E+00
  2.00000000E+00  2.00000000E+00  2.00000000E+00  2.00000000E+00  2.00000000E+00
  2.00000000E+00  2.00000000E+00  2.00000000E+00  2.00000000E+00  2.00000000E+00
  2.00000000E+00  2.00000000E+00  2.00000000E+00  2.00000000E+00  2.00000000E+00
  2.00000000E+00  2.00000000E+00  2.00000000E+00  0.00000000E+00  0.00000000E+00
%FLAG SOLTY                                                                     
%FORMAT(5E16.8)                                                                 
  0.00000000E+00  0.00000000E+00  0.00000000E+00  0.00000000E+00  0.00000000E+00
  0.00000000E+00  0.00000000E+00  0.00000000E+00  0.00000000E+00  0.00000000E+00
  0.00000000E+00
%FLAG LENNARD_JONES_ACOEF                                                       
%FORMAT(5E16.8)                                                                 
  6.96551276E+05  4.46121722E+05  2.83662575E+05  5.17507491E+05  3.27367585E+05
  3.76435470E+05  5.92438683E+05  3.78207390E+05  4.37717034E+05  5.03152404E+05
  2.25372434E+02  1.16469347E+02  1.15813907E+02  1.74176419E+02  1.10360882E-05
  8.43969952E+05  5.42502534E+05  6.30925504E+05  7.18991463E+05  3.03553352E+02
  1.02073671E+06  7.52549148E+04  4.65732396E+04  5.27277400E+04  6.30298721E+04
  8.53132435E+00  9.27554496E+04  6.90855956E+03  8.12662403E+04  5.02224902E+04
  5.68021765E+04  6.80216136E+04  8.80612241E+00  1.00235148E+05  7.41026906E+03
  7.94617769E+03
%FLAG LENNARD_JONES_BCOEF                                                       
%FORMAT(5E16.8)                                                                 
  5.24668528E+02  3.88758656E+02  2.87011518E+02  4.98871431E+02  3.67361018E+02
  4.69350655E+02  4.76608379E+02  3.52573684E+02  4.51916854E+02  4.32634597E+02
  4.40751799E+00  2.93355636E+00  3.48534600E+00  3.81654050E+00  4.55498033E-04
  5.90251928E+02  4.38146883E+02  5.62969425E+02  5.36620538E+02  5.22789272E+00
  6.63431737E+02  1.09570372E+02  7.98066064E+01  1.01173582E+02  9.87712192E+01
  5.44840215E-01  1.24325688E+02  2.10929191E+01  1.21392023E+02  8.83545880E+01
  1.11953944E+02  1.09393126E+02  5.90150328E-01  1.37787728E+02  2.32899892E+01
  2.57122925E+01
%FLAG BONDS_INC_HYDROGEN                                                        
%FORMAT(10I8)                                                                   
      12      72       9      15      75       9      18      78       9      21
      81       9      33      36      11      39      84      14      42      87
      14      42      90      14      48      93      14      48      96      14
      48      99      14      57     102       9      60     105       9      63
     108       9      66     111       9      69     114       9
%FLAG BONDS_WITHOUT_HYDROGEN                                                    
%FORMAT(10I8)                                                                   
       0       9       1       0      24       2       0      12       2       3
      30       3       3       6       4       3      27       5       6      39
       6       6       9       7       9      33       8      12      15       2
      15      18       2      18      21       2      21      24       2      24
      27      10      39      42      12      39      54      13      42      45
      15      45      51       3      45      48      15      54      69       2
      54      57       2      57      60       2      60      63       2      63
      66       2      66      69       2
%FLAG ANGLES_INC_HYDROGEN                                                       
%FORMAT(10I8)                                                                   
       0      12      72       5       6      39      84      13       9      33
      36      17      12      15      75       5      15      12      72       5
      15      18      78       5      18      15      75       5      18      21
      81       5      21      18      78       5      24      21      81       5
      39      42      87      20      39      42      90      20      42      39
      84      20      45      42      87      25      45      42      90      25
      45      48      93      25      45      48      96      25      45      48
      99      25      54      39      84      26      54      69     114       5
      54      57     102       5      57      60     105       5      60      57
     102       5      60      63     108       5      63      60     105       5
      63      66     111       5      66      63     108       5      66      69
     114       5      69      66     111       5      87      42      90      27
      93      48      96      27      93      48      99      27      96      48
      99      27
%FLAG ANGLES_WITHOUT_HYDROGEN                                                   
%FORMAT(10I8)                                                                   
       0       9       6       1       0       9      33       2       0      24
      21       3       0      24      27       4       0      12      15       3
       3       6      39       6       3       6       9       7       3      27
      24       8       6       3      30       9       6       3      27      10
       6      39      42      11       6      39      54      12       6       9
      33      14       9       0      24      15       9       0      12      15
       9       6      39      16      12       0      24       3      12      15
      18       3      15      18      21       3      18      21      24       3
      21      24      27       4      27       3      30      18      39      42
      45      19      39      54      69      21      39      54      57      21
      42      39      54      22      42      45      51      23      42      45
      48      24      48      45      51      23      54      69      66       3
      54      57      60       3      57      54      69       3      57      60
      63       3      60      63      66       3      63      66      69       3
%FLAG DIHEDRALS_INC_HYDROGEN                                                    
%FORMAT(10I8)                                                                   
       0       9      33      36       2       0      24      21      81       3
       0      12      15      75       3       3       6      39      84       5
       6      39      42      87       7       6      39      42      90       7
       6       9      33      36      10       9       0      12      72       3
       9       6      39      84       5      12      15      18      78       3
      15      18      21      81       3      18      15      12      72       3
      21      18      15      75       3      24       0      12      72       3
      24      21      18      78       3      27      24      21      81       3
      39      54      69     114       3      39      54      57     102       3
      42      45      48      93      23      42      45      48      96      23
      42      45      48      99      23      45      42      39      84       7
      48      45      42      87      23      48      45      42      90      23
      51      45      42      87      25      51      45     -42      87      26
      51      45      42      90      25      51      45     -42      90      26
      51      45      48      93      25      51      45     -48      93      26
      51      45      48      96      25      51      45     -48      96      26
      51      45      48      99      25      51      45     -48      99      26
      54      39      42      87       7      54      39      42      90       7
      54      69      66     111       3      54      57      60     105       3
      57      54      39      84      27      57      54      69     114       3
      57      60      63     108       3      60      63      66     111       3
      63      60      57     102       3      63      66      69     114       3
      66      63      60     105       3      69      54      39      84      27
      69      54      57     102       3      69      66      63     108       3
      72      12      15      75       3      75      15      18      78       3
      78      18      21      81       3      84      39      42      87      28
      84      39      42      90      28     102      57      60     105       3
     105      60      63     108       3     108      63      66     111       3
     111      66      69     114       3       0      15     -12     -72      29
      12      18     -15     -75      29      15      21     -18     -78      29
      18      24     -21     -81      29      54      60     -57    -102      29
      57      63     -60    -105      29      60      66     -63    -108      29
      63      69     -66    -111      29      54      66     -69    -114      29
%FLAG DIHEDRALS_WITHOUT_HYDROGEN                                                
%FORMAT(10I8)                                                                   
       0       9       6       3       1       0       9       6      39       1
       0      24      21      18       3       0      24     -27       3       4
       0      12     -15      18       3       3       6      39      42       5
       3       6      39      54       5       3       6       9      33       1
       3      27      24      21       4       6       3      27      24       6
       6      39      42      45       7       6      39      54      69       8
       6      39      54      57       8      24       0      -9       6       9
      12       0       9       6       9       9       0      24      21       3
       9       0      24      27       3       9       0      12      15       3
       9       6       3      30      11       9       6      -3      27      11
       9       6      39      42      12       9       6      39      54      13
      12       0       9      33      14      12       0      24      21       3
      12       0      24      27       3      12      15     -18      21       3
      24       0      12      15       3      15      18     -21      24       3
      18      21      24      27       3      24       0       9      33      14
      24      27       3      30      15      24      27      -3      30      16
      24      27      -3      30      17      27       3       6      39      11
      30       3       6      39      11      33       9       6      39       1
      39      42      45      51      18      39      42     -45      51      19
      39      42     -45      51      20      39      42      45      48      21
      39      54      69      66       3      39      54      57      60       3
      42      39      54      69      22      42      39      54      57      22
      45      42      39      54      24      54      69      66      63       3
      54      57     -60      63       3      57      54      69      66       3
      57      60     -63      66       3      60      57      54      69       3
      60      63     -66      69       3       9       0     -24     -12      29
       6      30      -3     -27      30       3      39      -6      -9      29
       0       6      -9     -33      29       0      21     -24     -27      29
      42      48     -45     -51      30      57      69     -54     -39      29
%FLAG EXCLUDED_ATOMS_LIST                                                       
%FORMAT(10I8)                                                                   
       2       3       4       5       6       7       8       9      10      12
      13      14      25      26      28       3       4       8       9      10
      11      12      14      15      19      29       4       5       9      10
      11      12      13      14      15      16      19      20      24      29
      30      31       5       6       8       9      10      11      12      13
      14      15      19      25      29       6       7       8       9      10
      12      25      26      27       7       8       9      25      26      27
      28       8       9      10      25      26      27      28       9      10
      26      27      28      10      11      12      25      27      28      11
      14      28      14      13      14       0      15      16      17      18
      19      20      21      23      24      29      30      31      35      39
      16      17      18      19      20      24      29      30      31      32
      33      34      17      18      19      29      30      31      32      33
      34      18      30      31      32      33      34      30      31      32
      33      34      20      21      22      23      24      29      30      31
      35      36      38      39      21      22      23      24      29      35
      36      37      39      22      23      24      35      36      37      38
      23      24      35      36      37      38      39      24      36      37
      38      39      29      35      37      38      39      26      27      28
       0      30      31      31       0      33      34      34       0      36
      37      38      39       0
%FLAG HBOND_ACOEF                                                               
%FORMAT(5E16.8)                                                                 

%FLAG HBOND_BCOEF                                                               
%FORMAT(5E16.8)                                                                 

%FLAG HBCUT                                                                     
%FORMAT(5E16.8)                                                                 

%FLAG AMBER_ATOM_TYPE                                                           
%FORMAT(20a4)                                                                   
ca  c   cc  cd  ca  ca  ca  ca  ca  os  o   oh  ho  c3  c3  c   c3  o   ca  ca  
ca  ca  ca  ca  ha  ha  ha  ha  hc  hc  hc  hc  hc  hc  ha  ha  ha  ha  ha  
%FLAG TREE_CHAIN_CLASSIFICATION                                                 
%FORMAT(20a4)                                                                   
BLA BLA BLA BLA BLA BLA BLA BLA BLA BLA BLA BLA BLA BLA BLA BLA BLA BLA BLA BLA 
BLA BLA BLA BLA BLA BLA BLA BLA BLA BLA BLA BLA BLA BLA BLA BLA BLA BLA BLA 
%FLAG JOIN_ARRAY                                                                
%FORMAT(10I8)                                                                   
       0       0       0       0       0       0       0       0       0       0
       0       0       0       0       0       0       0       0       0       0
       0       0       0       0       0       0       0       0       0       0
       0       0       0       0       0       0       0       0       0
%FLAG IROTAT                                                                    
%FORMAT(10I8)                                                                   
       0       0       0       0       0       0       0       0       0       0
       0       0       0       0       0       0       0       0       0       0
       0       0       0       0       0       0       0       0       0       0
       0       0       0       0       0       0       0       0       0
%FLAG RADIUS_SET                                                                
%FORMAT(1a80)                                                                   
modified Bondi radii (mbondi)                                                   
%FLAG RADII                                                                     
%FORMAT(5E16.8)                                                                 
  1.70000000E+00  1.70000000E+00  1.70000000E+00  1.70000000E+00  1.70000000E+00
  1.70000000E+00  1.70000000E+00  1.70000000E+00  1.70000000E+00  1.50000000E+00
  1.50000000E+00  1.50000000E+00  8.00000000E-01  1.70000000E+00  1.70000000E+00
  1.70000000E+00  1.70000000E+00  1.50000000E+00  1.70000000E+00  1.70000000E+00
  1.70000000E+00  1.70000000E+00  1.70000000E+00  1.70000000E+00  1.30000000E+00
  1.30000000E+00  1.30000000E+00  1.30000000E+00  1.30000000E+00  1.30000000E+00
  1.30000000E+00  1.30000000E+00  1.30000000E+00  1.30000000E+00  1.30000000E+00
  1.30000000E+00  1.30000000E+00  1.30000000E+00  1.30000000E+00
%FLAG SCREEN                                                                    
%FORMAT(5E16.8)                                                                 
  7.20000000E-01  7.20000000E-01  7.20000000E-01  7.20000000E-01  7.20000000E-01
  7.20000000E-01  7.20000000E-01  7.20000000E-01  7.20000000E-01  8.50000000E-01
  8.50000000E-01  8.50000000E-01  8.50000000E-01  7.20000000E-01  7.20000000E-01
  7.20000000E-01  7.20000000E-01  8.50000000E-01  7.20000000E-01  7.20000000E-01
  7.20000000E-01  7.20000000E-01  7.20000000E-01  7.20000000E-01  8.50000000E-01
  8.50000000E-01  8.50000000E-01  8.50000000E-01  8.50000000E-01  8.50000000E-01
  8.50000000E-01  8.50000000E-01  8.50000000E-01  8.50000000E-01  8.50000000E-01
  8.50000000E-01  8.50000000E-01  8.50000000E-01  8.50000000E-01
%FLAG IPOL                                                                      
%FORMAT(1I8)                                                                    
       0
