; h2rwf_GMX.itp created by acpype (v: 2023.10.27) on Thu Sep  4 07:59:50 2025

[ atomtypes ]
;name   bond_type     mass     charge   ptype   sigma         epsilon       Amb
 ca       ca          0.00000  0.00000   A     3.31521e-01   4.13379e-01 ; 1.86  0.0988
 c        c           0.00000  0.00000   A     3.31521e-01   4.13379e-01 ; 1.86  0.0988
 cc       cc          0.00000  0.00000   A     3.31521e-01   4.13379e-01 ; 1.86  0.0988
 cd       cd          0.00000  0.00000   A     3.31521e-01   4.13379e-01 ; 1.86  0.0988
 os       os          0.00000  0.00000   A     3.15610e-01   3.03758e-01 ; 1.77  0.0726
 o        o           0.00000  0.00000   A     3.04812e-01   6.12119e-01 ; 1.71  0.1463
 oh       oh          0.00000  0.00000   A     3.24287e-01   3.89112e-01 ; 1.82  0.0930
 ho       ho          0.00000  0.00000   A     5.37925e-02   1.96648e-02 ; 0.30  0.0047
 c3       c3          0.00000  0.00000   A     3.39771e-01   4.51035e-01 ; 1.91  0.1078
 ha       ha          0.00000  0.00000   A     2.62548e-01   6.73624e-02 ; 1.47  0.0161
 hc       hc          0.00000  0.00000   A     2.60018e-01   8.70272e-02 ; 1.46  0.0208

[ moleculetype ]
;name            nrexcl
 h2rwf            3

[ atoms ]
;   nr  type  resi  res  atom  cgnr     charge      mass       ; qtot   bond_type
     1   ca     1   UNL     C    1    -0.157800     12.01000 ; qtot -0.158
     2    c     1   UNL    C1    2     0.749801     12.01000 ; qtot 0.592
     3   cc     1   UNL    C2    3    -0.316400     12.01000 ; qtot 0.276
     4   cd     1   UNL    C3    4     0.257900     12.01000 ; qtot 0.534
     5   ca     1   UNL    C4    5    -0.050000     12.01000 ; qtot 0.484
     6   ca     1   UNL    C5    6    -0.166000     12.01000 ; qtot 0.318
     7   ca     1   UNL    C6    7    -0.075000     12.01000 ; qtot 0.243
     8   ca     1   UNL    C7    8    -0.154000     12.01000 ; qtot 0.089
     9   ca     1   UNL    C8    9     0.161100     12.01000 ; qtot 0.250
    10   os     1   UNL     O   10    -0.324200     16.00000 ; qtot -0.075
    11    o     1   UNL    O1   11    -0.589500     16.00000 ; qtot -0.664
    12   oh     1   UNL    O2   12    -0.481100     16.00000 ; qtot -1.145
    13   ho     1   UNL     H   13     0.447000      1.00800 ; qtot -0.698
    14   c3     1   UNL    C9   14     0.049800     12.01000 ; qtot -0.648
    15   c3     1   UNL   C10   15    -0.177400     12.01000 ; qtot -0.826
    16    c     1   UNL   C11   16     0.572100     12.01000 ; qtot -0.254
    17   c3     1   UNL   C12   17    -0.202100     12.01000 ; qtot -0.456
    18    o     1   UNL    O3   18    -0.546100     16.00000 ; qtot -1.002
    19   ca     1   UNL   C13   19    -0.098300     12.01000 ; qtot -1.100
    20   ca     1   UNL   C14   20    -0.125000     12.01000 ; qtot -1.225
    21   ca     1   UNL   C15   21    -0.128000     12.01000 ; qtot -1.353
    22   ca     1   UNL   C16   22    -0.127000     12.01000 ; qtot -1.480
    23   ca     1   UNL   C17   23    -0.128000     12.01000 ; qtot -1.608
    24   ca     1   UNL   C18   24    -0.125000     12.01000 ; qtot -1.733
    25   ha     1   UNL    H1   25     0.157000      1.00800 ; qtot -1.576
    26   ha     1   UNL    H2   26     0.143000      1.00800 ; qtot -1.433
    27   ha     1   UNL    H3   27     0.142000      1.00800 ; qtot -1.291
    28   ha     1   UNL    H4   28     0.162000      1.00800 ; qtot -1.129
    29   hc     1   UNL    H5   29     0.071700      1.00800 ; qtot -1.057
    30   hc     1   UNL    H6   30     0.087200      1.00800 ; qtot -0.970
    31   hc     1   UNL    H7   31     0.087200      1.00800 ; qtot -0.883
    32   hc     1   UNL    H8   32     0.066033      1.00800 ; qtot -0.817
    33   hc     1   UNL    H9   33     0.066033      1.00800 ; qtot -0.751
    34   hc     1   UNL   H10   34     0.066033      1.00800 ; qtot -0.685
    35   ha     1   UNL   H11   35     0.142000      1.00800 ; qtot -0.543
    36   ha     1   UNL   H12   36     0.134000      1.00800 ; qtot -0.409
    37   ha     1   UNL   H13   37     0.133000      1.00800 ; qtot -0.276
    38   ha     1   UNL   H14   38     0.134000      1.00800 ; qtot -0.142
    39   ha     1   UNL   H15   39     0.142000      1.00800 ; qtot -0.000

[ bonds ]
;   ai     aj funct   r             k
     1      4   1    1.4610e-01    2.4166e+05 ;      C - C3    
     1      5   1    1.3986e-01    2.9644e+05 ;      C - C4    
     1      9   1    1.3986e-01    2.9644e+05 ;      C - C8    
     2      3   1    1.4687e-01    2.3579e+05 ;     C1 - C2    
     2     10   1    1.3621e-01    2.9398e+05 ;     C1 - O     
     2     11   1    1.2190e-01    4.9421e+05 ;     C1 - O1    
     3      4   1    1.3730e-01    3.2321e+05 ;     C2 - C3    
     3     14   1    1.5002e-01    2.1350e+05 ;     C2 - C9    
     4     12   1    1.3492e-01    3.0737e+05 ;     C3 - O2    
     5      6   1    1.3986e-01    2.9644e+05 ;     C4 - C5    
     5     25   1    1.0860e-01    3.0183e+05 ;     C4 - H1    
     6      7   1    1.3986e-01    2.9644e+05 ;     C5 - C6    
     6     26   1    1.0860e-01    3.0183e+05 ;     C5 - H2    
     7      8   1    1.3986e-01    2.9644e+05 ;     C6 - C7    
     7     27   1    1.0860e-01    3.0183e+05 ;     C6 - H3    
     8      9   1    1.3986e-01    2.9644e+05 ;     C7 - C8    
     8     28   1    1.0860e-01    3.0183e+05 ;     C7 - H4    
     9     10   1    1.3688e-01    2.8731e+05 ;     C8 - O     
    12     13   1    9.7250e-02    4.4811e+05 ;     O2 - H     
    14     15   1    1.5354e-01    1.9154e+05 ;     C9 - C10   
    14     19   1    1.5147e-01    2.0410e+05 ;     C9 - C13   
    14     29   1    1.0962e-01    2.8891e+05 ;     C9 - H5    
    15     16   1    1.5270e-01    1.9652e+05 ;    C10 - C11   
    15     30   1    1.0962e-01    2.8891e+05 ;    C10 - H6    
    15     31   1    1.0962e-01    2.8891e+05 ;    C10 - H7    
    16     17   1    1.5270e-01    1.9652e+05 ;    C11 - C12   
    16     18   1    1.2190e-01    4.9421e+05 ;    C11 - O3    
    17     32   1    1.0962e-01    2.8891e+05 ;    C12 - H8    
    17     33   1    1.0962e-01    2.8891e+05 ;    C12 - H9    
    17     34   1    1.0962e-01    2.8891e+05 ;    C12 - H10   
    19     20   1    1.3986e-01    2.9644e+05 ;    C13 - C14   
    19     24   1    1.3986e-01    2.9644e+05 ;    C13 - C18   
    20     21   1    1.3986e-01    2.9644e+05 ;    C14 - C15   
    20     35   1    1.0860e-01    3.0183e+05 ;    C14 - H11   
    21     22   1    1.3986e-01    2.9644e+05 ;    C15 - C16   
    21     36   1    1.0860e-01    3.0183e+05 ;    C15 - H12   
    22     23   1    1.3986e-01    2.9644e+05 ;    C16 - C17   
    22     37   1    1.0860e-01    3.0183e+05 ;    C16 - H13   
    23     24   1    1.3986e-01    2.9644e+05 ;    C17 - C18   
    23     38   1    1.0860e-01    3.0183e+05 ;    C17 - H14   
    24     39   1    1.0860e-01    3.0183e+05 ;    C18 - H15   

[ pairs ]
;   ai     aj    funct
     1      2      1 ;      C - C1    
     1      7      1 ;      C - C6    
     1     13      1 ;      C - H     
     1     14      1 ;      C - C9    
     1     26      1 ;      C - H2    
     1     28      1 ;      C - H4    
     2      8      1 ;     C1 - C7    
     2     12      1 ;     C1 - O2    
     2     15      1 ;     C1 - C10   
     2     19      1 ;     C1 - C13   
     2     29      1 ;     C1 - H5    
     3      9      1 ;     C2 - C8    
     3     13      1 ;     C2 - H     
     3     16      1 ;     C2 - C11   
     3     20      1 ;     C2 - C14   
     3     24      1 ;     C2 - C18   
     3     30      1 ;     C2 - H6    
     3     31      1 ;     C2 - H7    
     4      6      1 ;     C3 - C5    
     4      8      1 ;     C3 - C7    
     4     10      1 ;     C3 - O     
     4     11      1 ;     C3 - O1    
     4     15      1 ;     C3 - C10   
     4     19      1 ;     C3 - C13   
     4     25      1 ;     C3 - H1    
     4     29      1 ;     C3 - H5    
     5      3      1 ;     C4 - C2    
     5      8      1 ;     C4 - C7    
     5     10      1 ;     C4 - O     
     5     12      1 ;     C4 - O2    
     5     27      1 ;     C4 - H3    
     6     28      1 ;     C5 - H4    
     7     10      1 ;     C6 - O     
     7     25      1 ;     C6 - H1    
     8     26      1 ;     C7 - H2    
     9      6      1 ;     C8 - C5    
     9     11      1 ;     C8 - O1    
     9     12      1 ;     C8 - O2    
     9     25      1 ;     C8 - H1    
     9     27      1 ;     C8 - H3    
    10     14      1 ;      O - C9    
    10     28      1 ;      O - H4    
    11     14      1 ;     O1 - C9    
    12     14      1 ;     O2 - C9    
    14     17      1 ;     C9 - C12   
    14     18      1 ;     C9 - O3    
    14     21      1 ;     C9 - C15   
    14     23      1 ;     C9 - C17   
    14     35      1 ;     C9 - H11   
    14     39      1 ;     C9 - H15   
    15     20      1 ;    C10 - C14   
    15     24      1 ;    C10 - C18   
    15     32      1 ;    C10 - H8    
    15     33      1 ;    C10 - H9    
    15     34      1 ;    C10 - H10   
    16     19      1 ;    C11 - C13   
    16     29      1 ;    C11 - H5    
    17     30      1 ;    C12 - H6    
    17     31      1 ;    C12 - H7    
    18     30      1 ;     O3 - H6    
    18     31      1 ;     O3 - H7    
    18     32      1 ;     O3 - H8    
    18     33      1 ;     O3 - H9    
    18     34      1 ;     O3 - H10   
    19     22      1 ;    C13 - C16   
    19     30      1 ;    C13 - H6    
    19     31      1 ;    C13 - H7    
    19     36      1 ;    C13 - H12   
    19     38      1 ;    C13 - H14   
    20     23      1 ;    C14 - C17   
    20     29      1 ;    C14 - H5    
    20     37      1 ;    C14 - H13   
    20     39      1 ;    C14 - H15   
    21     24      1 ;    C15 - C18   
    21     38      1 ;    C15 - H14   
    22     35      1 ;    C16 - H11   
    22     39      1 ;    C16 - H15   
    23     36      1 ;    C17 - H12   
    24     29      1 ;    C18 - H5    
    24     35      1 ;    C18 - H11   
    24     37      1 ;    C18 - H13   
    25     26      1 ;     H1 - H2    
    26     27      1 ;     H2 - H3    
    27     28      1 ;     H3 - H4    
    29     30      1 ;     H5 - H6    
    29     31      1 ;     H5 - H7    
    35     36      1 ;    H11 - H12   
    36     37      1 ;    H12 - H13   
    37     38      1 ;    H13 - H14   
    38     39      1 ;    H14 - H15   

[ angles ]
;   ai     aj     ak    funct   theta         cth
     1      4      3      1    1.2429e+02    5.1580e+02 ;      C - C3     - C2    
     1      4     12      1    1.1925e+02    6.4869e+02 ;      C - C3     - O2    
     1      5      6      1    1.2002e+02    5.3279e+02 ;      C - C4     - C5    
     1      5     25      1    1.1988e+02    3.7572e+02 ;      C - C4     - H1    
     1      9      8      1    1.2002e+02    5.3279e+02 ;      C - C8     - C7    
     1      9     10      1    1.1911e+02    6.6107e+02 ;      C - C8     - O     
     2      3      4      1    1.2132e+02    5.2049e+02 ;     C1 - C2     - C3    
     2      3     14      1    1.1752e+02    5.0718e+02 ;     C1 - C2     - C9    
     2     10      9      1    1.2129e+02    7.4776e+02 ;     C1 - O      - C8    
     3      2     10      1    1.1410e+02    6.5856e+02 ;     C2 - C1     - O     
     3      2     11      1    1.2406e+02    6.5572e+02 ;     C2 - C1     - O1    
     3      4     12      1    1.2370e+02    6.5948e+02 ;     C2 - C3     - O2    
     3     14     15      1    1.1296e+02    5.0593e+02 ;     C2 - C9     - C10   
     3     14     19      1    1.1326e+02    5.0886e+02 ;     C2 - C9     - C13   
     3     14     29      1    1.1036e+02    3.6853e+02 ;     C2 - C9     - H5    
     4      1      5      1    1.2083e+02    5.1898e+02 ;     C3 - C      - C4    
     4      1      9      1    1.2083e+02    5.1898e+02 ;     C3 - C      - C8    
     4      3     14      1    1.2771e+02    5.0091e+02 ;     C3 - C2     - C9    
     4     12     13      1    1.0720e+02    5.7354e+02 ;     C3 - O2     - H     
     5      1      9      1    1.2002e+02    5.3279e+02 ;     C4 - C      - C8    
     5      6      7      1    1.2002e+02    5.3279e+02 ;     C4 - C5     - C6    
     5      6     26      1    1.1988e+02    3.7572e+02 ;     C4 - C5     - H2    
     6      5     25      1    1.1988e+02    3.7572e+02 ;     C5 - C4     - H1    
     6      7      8      1    1.2002e+02    5.3279e+02 ;     C5 - C6     - C7    
     6      7     27      1    1.1988e+02    3.7572e+02 ;     C5 - C6     - H3    
     7      6     26      1    1.1988e+02    3.7572e+02 ;     C6 - C5     - H2    
     7      8      9      1    1.2002e+02    5.3279e+02 ;     C6 - C7     - C8    
     7      8     28      1    1.1988e+02    3.7572e+02 ;     C6 - C7     - H4    
     8      7     27      1    1.1988e+02    3.7572e+02 ;     C7 - C6     - H3    
     8      9     10      1    1.1911e+02    6.6107e+02 ;     C7 - C8     - O     
     9      8     28      1    1.1988e+02    3.7572e+02 ;     C8 - C7     - H4    
    10      2     11      1    1.2320e+02    8.4734e+02 ;      O - C1     - O1    
    14     15     16      1    1.1143e+02    5.0509e+02 ;     C9 - C10    - C11   
    14     15     30      1    1.0968e+02    3.6208e+02 ;     C9 - C10    - H6    
    14     15     31      1    1.0968e+02    3.6208e+02 ;     C9 - C10    - H7    
    14     19     20      1    1.2083e+02    5.0827e+02 ;     C9 - C13    - C14   
    14     19     24      1    1.2083e+02    5.0827e+02 ;     C9 - C13    - C18   
    15     14     19      1    1.1242e+02    5.0484e+02 ;    C10 - C9     - C13   
    15     14     29      1    1.0968e+02    3.6208e+02 ;    C10 - C9     - H5    
    15     16     17      1    1.1668e+02    4.9497e+02 ;    C10 - C11    - C12   
    15     16     18      1    1.2290e+02    6.3973e+02 ;    C10 - C11    - O3    
    16     15     30      1    1.0895e+02    3.6510e+02 ;    C11 - C10    - H6    
    16     15     31      1    1.0895e+02    3.6510e+02 ;    C11 - C10    - H7    
    16     17     32      1    1.0895e+02    3.6510e+02 ;    C11 - C12    - H8    
    16     17     33      1    1.0895e+02    3.6510e+02 ;    C11 - C12    - H9    
    16     17     34      1    1.0895e+02    3.6510e+02 ;    C11 - C12    - H10   
    17     16     18      1    1.2290e+02    6.3973e+02 ;    C12 - C11    - O3    
    19     14     29      1    1.1063e+02    3.6493e+02 ;    C13 - C9     - H5    
    19     20     21      1    1.2002e+02    5.3279e+02 ;    C13 - C14    - C15   
    19     20     35      1    1.1988e+02    3.7572e+02 ;    C13 - C14    - H11   
    19     24     23      1    1.2002e+02    5.3279e+02 ;    C13 - C18    - C17   
    19     24     39      1    1.1988e+02    3.7572e+02 ;    C13 - C18    - H15   
    20     19     24      1    1.2002e+02    5.3279e+02 ;    C14 - C13    - C18   
    20     21     22      1    1.2002e+02    5.3279e+02 ;    C14 - C15    - C16   
    20     21     36      1    1.1988e+02    3.7572e+02 ;    C14 - C15    - H12   
    21     20     35      1    1.1988e+02    3.7572e+02 ;    C15 - C14    - H11   
    21     22     23      1    1.2002e+02    5.3279e+02 ;    C15 - C16    - C17   
    21     22     37      1    1.1988e+02    3.7572e+02 ;    C15 - C16    - H13   
    22     21     36      1    1.1988e+02    3.7572e+02 ;    C16 - C15    - H12   
    22     23     24      1    1.2002e+02    5.3279e+02 ;    C16 - C17    - C18   
    22     23     38      1    1.1988e+02    3.7572e+02 ;    C16 - C17    - H14   
    23     22     37      1    1.1988e+02    3.7572e+02 ;    C17 - C16    - H13   
    23     24     39      1    1.1988e+02    3.7572e+02 ;    C17 - C18    - H15   
    24     23     38      1    1.1988e+02    3.7572e+02 ;    C18 - C17    - H14   
    30     15     31      1    1.0773e+02    2.9957e+02 ;     H6 - C10    - H7    
    32     17     33      1    1.0773e+02    2.9957e+02 ;     H8 - C12    - H9    
    32     17     34      1    1.0773e+02    2.9957e+02 ;     H8 - C12    - H10   
    33     17     34      1    1.0773e+02    2.9957e+02 ;     H9 - C12    - H10   

[ dihedrals ] ; propers
; for gromacs 4.5 or higher, using funct 9
;    i      j      k      l   func   phase     kd      pn
     1      4      3      2      9   180.00  16.73600   2 ;      C-    C3-    C2-    C1
     1      4      3     14      9   180.00  16.73600   2 ;      C-    C3-    C2-    C9
     1      4     12     13      9   180.00   3.57732   2 ;      C-    C3-    O2-     H
     1      5      6      7      9   180.00  15.16700   2 ;      C-    C4-    C5-    C6
     1      5      6     26      9   180.00  15.16700   2 ;      C-    C4-    C5-    H2
     1      9      8      7      9   180.00  15.16700   2 ;      C-    C8-    C7-    C6
     1      9      8     28      9   180.00  15.16700   2 ;      C-    C8-    C7-    H4
     1      9     10      2      9   180.00   4.10032   2 ;      C-    C8-     O-    C1
     2      3      4     12      9   180.00  16.73600   2 ;     C1-    C2-    C3-    O2
     2      3     14     15      9     0.00   0.00000   0 ;     C1-    C2-    C9-   C10
     2      3     14     19      9     0.00   0.00000   0 ;     C1-    C2-    C9-   C13
     2      3     14     29      9     0.00   0.00000   0 ;     C1-    C2-    C9-    H5
     2     10      9      8      9   180.00   4.10032   2 ;     C1-     O-    C8-    C7
     3      2     10      9      9   180.00  11.29680   2 ;     C2-    C1-     O-    C8
     3      4     12     13      9   180.00   5.35552   2 ;     C2-    C3-    O2-     H
     3     14     15     16      9     0.00   0.65084   3 ;     C2-    C9-   C10-   C11
     3     14     15     30      9     0.00   0.65084   3 ;     C2-    C9-   C10-    H6
     3     14     15     31      9     0.00   0.65084   3 ;     C2-    C9-   C10-    H7
     3     14     19     20      9     0.00   0.00000   0 ;     C2-    C9-   C13-   C14
     3     14     19     24      9     0.00   0.00000   0 ;     C2-    C9-   C13-   C18
     4      1      5      6      9   180.00  15.16700   2 ;     C3-     C-    C4-    C5
     4      1      5     25      9   180.00  15.16700   2 ;     C3-     C-    C4-    H1
     4      1      9      8      9   180.00  15.16700   2 ;     C3-     C-    C8-    C7
     4      1      9     10      9   180.00  15.16700   2 ;     C3-     C-    C8-     O
     4      3      2     10      9   180.00  12.02900   2 ;     C3-    C2-    C1-     O
     4      3      2     11      9   180.00  12.02900   2 ;     C3-    C2-    C1-    O1
     4      3     14     15      9   180.00   0.65689   3 ;     C3-    C2-    C9-   C10
     4      3     14     19      9   180.00   1.38072   1 ;     C3-    C2-    C9-   C13
     4      3     14     29      9     0.00   0.00000   0 ;     C3-    C2-    C9-    H5
     5      1      4      3      9   180.00  15.77368   2 ;     C4-     C-    C3-    C2
     5      1      4     12      9   180.00   2.92880   2 ;     C4-     C-    C3-    O2
     5      1      9      8      9   180.00  15.16700   2 ;     C4-     C-    C8-    C7
     5      1      9     10      9   180.00  15.16700   2 ;     C4-     C-    C8-     O
     5      6      7      8      9   180.00  15.16700   2 ;     C4-    C5-    C6-    C7
     5      6      7     27      9   180.00  15.16700   2 ;     C4-    C5-    C6-    H3
     6      7      8      9      9   180.00  15.16700   2 ;     C5-    C6-    C7-    C8
     6      7      8     28      9   180.00  15.16700   2 ;     C5-    C6-    C7-    H4
     7      6      5     25      9   180.00  15.16700   2 ;     C6-    C5-    C4-    H1
     7      8      9     10      9   180.00  15.16700   2 ;     C6-    C7-    C8-     O
     8      7      6     26      9   180.00  15.16700   2 ;     C7-    C6-    C5-    H2
     9      1      4      3      9   180.00  15.77368   2 ;     C8-     C-    C3-    C2
     9      1      4     12      9   180.00   2.92880   2 ;     C8-     C-    C3-    O2
     9      1      5      6      9   180.00  15.16700   2 ;     C8-     C-    C4-    C5
     9      1      5     25      9   180.00  15.16700   2 ;     C8-     C-    C4-    H1
     9      8      7     27      9   180.00  15.16700   2 ;     C8-    C7-    C6-    H3
     9     10      2     11      9     0.00   0.33472   3 ;     C8-     O-    C1-    O1
     9     10      2     11      9     0.00   7.23832   1 ;     C8-     O-    C1-    O1
     9     10      2     11      9   180.00   8.99560   2 ;     C8-     O-    C1-    O1
    10      2      3     14      9   180.00  12.02900   2 ;      O-    C1-    C2-    C9
    10      9      8     28      9   180.00  15.16700   2 ;      O-    C8-    C7-    H4
    11      2      3     14      9   180.00  12.02900   2 ;     O1-    C1-    C2-    C9
    12      4      3     14      9   180.00  16.73600   2 ;     O2-    C3-    C2-    C9
    14     15     16     17      9   180.00   1.09621   2 ;     C9-   C10-   C11-   C12
    14     15     16     18      9     0.00   2.84512   1 ;     C9-   C10-   C11-    O3
    14     15     16     18      9   180.00   0.83680   2 ;     C9-   C10-   C11-    O3
    14     15     16     18      9   180.00   1.84096   3 ;     C9-   C10-   C11-    O3
    14     19     20     21      9   180.00  15.16700   2 ;     C9-   C13-   C14-   C15
    14     19     20     35      9   180.00  15.16700   2 ;     C9-   C13-   C14-   H11
    14     19     24     23      9   180.00  15.16700   2 ;     C9-   C13-   C18-   C17
    14     19     24     39      9   180.00  15.16700   2 ;     C9-   C13-   C18-   H15
    15     14     19     20      9   180.00   1.00416   2 ;    C10-    C9-   C13-   C14
    15     14     19     24      9   180.00   1.00416   2 ;    C10-    C9-   C13-   C18
    15     16     17     32      9   180.00   0.00000   3 ;    C10-   C11-   C12-    H8
    15     16     17     33      9   180.00   0.00000   3 ;    C10-   C11-   C12-    H9
    15     16     17     34      9   180.00   0.00000   3 ;    C10-   C11-   C12-   H10
    16     15     14     19      9     0.00   3.43088   1 ;    C11-   C10-    C9-   C13
    16     15     14     29      9     0.00   0.65084   3 ;    C11-   C10-    C9-    H5
    17     16     15     30      9   180.00   0.00000   3 ;    C12-   C11-   C10-    H6
    17     16     15     31      9   180.00   0.00000   3 ;    C12-   C11-   C10-    H7
    18     16     15     30      9     0.00  16.86152   1 ;     O3-   C11-   C10-    H6
    18     16     15     30      9   180.00  15.31344   2 ;     O3-   C11-   C10-    H6
    18     16     15     31      9     0.00  16.86152   1 ;     O3-   C11-   C10-    H7
    18     16     15     31      9   180.00  15.31344   2 ;     O3-   C11-   C10-    H7
    18     16     17     32      9     0.00  16.86152   1 ;     O3-   C11-   C12-    H8
    18     16     17     32      9   180.00  15.31344   2 ;     O3-   C11-   C12-    H8
    18     16     17     33      9     0.00  16.86152   1 ;     O3-   C11-   C12-    H9
    18     16     17     33      9   180.00  15.31344   2 ;     O3-   C11-   C12-    H9
    18     16     17     34      9     0.00  16.86152   1 ;     O3-   C11-   C12-   H10
    18     16     17     34      9   180.00  15.31344   2 ;     O3-   C11-   C12-   H10
    19     14     15     30      9     0.00   0.65084   3 ;    C13-    C9-   C10-    H6
    19     14     15     31      9     0.00   0.65084   3 ;    C13-    C9-   C10-    H7
    19     20     21     22      9   180.00  15.16700   2 ;    C13-   C14-   C15-   C16
    19     20     21     36      9   180.00  15.16700   2 ;    C13-   C14-   C15-   H12
    19     24     23     22      9   180.00  15.16700   2 ;    C13-   C18-   C17-   C16
    19     24     23     38      9   180.00  15.16700   2 ;    C13-   C18-   C17-   H14
    20     19     14     29      9     0.00   0.00000   0 ;    C14-   C13-    C9-    H5
    20     19     24     23      9   180.00  15.16700   2 ;    C14-   C13-   C18-   C17
    20     19     24     39      9   180.00  15.16700   2 ;    C14-   C13-   C18-   H15
    20     21     22     23      9   180.00  15.16700   2 ;    C14-   C15-   C16-   C17
    20     21     22     37      9   180.00  15.16700   2 ;    C14-   C15-   C16-   H13
    21     20     19     24      9   180.00  15.16700   2 ;    C15-   C14-   C13-   C18
    21     22     23     24      9   180.00  15.16700   2 ;    C15-   C16-   C17-   C18
    21     22     23     38      9   180.00  15.16700   2 ;    C15-   C16-   C17-   H14
    22     21     20     35      9   180.00  15.16700   2 ;    C16-   C15-   C14-   H11
    22     23     24     39      9   180.00  15.16700   2 ;    C16-   C17-   C18-   H15
    23     22     21     36      9   180.00  15.16700   2 ;    C17-   C16-   C15-   H12
    24     19     14     29      9     0.00   0.00000   0 ;    C18-   C13-    C9-    H5
    24     19     20     35      9   180.00  15.16700   2 ;    C18-   C13-   C14-   H11
    24     23     22     37      9   180.00  15.16700   2 ;    C18-   C17-   C16-   H13
    25      5      6     26      9   180.00  15.16700   2 ;     H1-    C4-    C5-    H2
    26      6      7     27      9   180.00  15.16700   2 ;     H2-    C5-    C6-    H3
    27      7      8     28      9   180.00  15.16700   2 ;     H3-    C6-    C7-    H4
    29     14     15     30      9     0.00   0.50208   3 ;     H5-    C9-   C10-    H6
    29     14     15     31      9     0.00   0.50208   3 ;     H5-    C9-   C10-    H7
    35     20     21     36      9   180.00  15.16700   2 ;    H11-   C14-   C15-   H12
    36     21     22     37      9   180.00  15.16700   2 ;    H12-   C15-   C16-   H13
    37     22     23     38      9   180.00  15.16700   2 ;    H13-   C16-   C17-   H14
    38     23     24     39      9   180.00  15.16700   2 ;    H14-   C17-   C18-   H15

[ dihedrals ] ; impropers
; treated as propers in GROMACS to use correct AMBER analytical function
;    i      j      k      l   func   phase     kd      pn
     1      3      4     12      4   180.00   4.60240   2 ;      C-    C2-    C3-    O2
     1      6      5     25      4   180.00   4.60240   2 ;      C-    C5-    C4-    H1
     1      8      9     10      4   180.00   4.60240   2 ;      C-    C7-    C8-     O
     2     14      3      4      4   180.00   4.60240   2 ;     C1-    C9-    C2-    C3
     3     11      2     10      4   180.00  43.93200   2 ;     C2-    O1-    C1-     O
     4      1      9      5      4   180.00   4.60240   2 ;     C3-     C-    C8-    C4
     5      7      6     26      4   180.00   4.60240   2 ;     C4-    C6-    C5-    H2
     6      8      7     27      4   180.00   4.60240   2 ;     C5-    C7-    C6-    H3
     7      9      8     28      4   180.00   4.60240   2 ;     C6-    C8-    C7-    H4
    15     17     16     18      4   180.00  43.93200   2 ;    C10-   C12-   C11-    O3
    19     21     20     35      4   180.00   4.60240   2 ;    C13-   C15-   C14-   H11
    19     23     24     39      4   180.00   4.60240   2 ;    C13-   C17-   C18-   H15
    20     22     21     36      4   180.00   4.60240   2 ;    C14-   C16-   C15-   H12
    20     24     19     14      4   180.00   4.60240   2 ;    C14-   C18-   C13-    C9
    21     23     22     37      4   180.00   4.60240   2 ;    C15-   C17-   C16-   H13
    22     24     23     38      4   180.00   4.60240   2 ;    C16-   C18-   C17-   H14
