h2eb1_GMX.gro created by acpype (v: 2023.10.27) on Thu Sep  4 07:59:48 2025
 105
    1  UNL    O    1   0.571   0.643  -2.434
    1  UNL   O1    2   0.908   1.043  -2.432
    1  UNL   O2    3   1.084   0.608  -2.490
    1  UNL   O3    4   0.670   0.923  -2.256
    1  UNL   O4    5   0.670   0.739  -2.620
    1  UNL   O5    6   0.785   0.654  -2.289
    1  UNL   O6    7   1.277   0.867  -2.460
    1  UNL   O7    8   0.989   1.253  -2.477
    1  UNL   O8    9   1.210   0.628  -2.298
    1  UNL    N   10   0.616   0.978  -2.475
    1  UNL   N1   11   0.891   0.469  -2.378
    1  UNL   N2   12   1.087   0.915  -2.585
    1  UNL    C   13   0.517   0.869  -2.481
    1  UNL   C1   14   1.010   0.493  -2.293
    1  UNL   C2   15   1.104   1.061  -2.570
    1  UNL   C3   16   0.800   1.098  -2.353
    1  UNL   C4   17   0.655   0.527  -2.444
    1  UNL   C5   18   1.176   0.681  -2.574
    1  UNL   C6   19   0.690   0.992  -2.356
    1  UNL   C7   20   0.595   0.745  -2.523
    1  UNL   C8   21   0.782   0.556  -2.364
    1  UNL   C9   22   1.185   0.829  -2.533
    1  UNL  C10   23   0.994   1.131  -2.490
    1  UNL  C11   24   1.112   0.585  -2.359
    1  UNL  C12   25   0.634   1.061  -2.594
    1  UNL  C13   26   0.897   0.358  -2.474
    1  UNL  C14   27   0.978   0.869  -2.670
    1  UNL  C15   28   0.578   0.411  -2.382
    1  UNL  C16   29   0.434   0.453  -2.351
    1  UNL  C17   30   0.579   0.289  -2.474
    1  UNL  C18   31   0.399   0.891  -2.574
    1  UNL  C19   32   0.437   0.853  -2.717
    1  UNL  C20   33   0.277   0.812  -2.523
    1  UNL  C21   34   0.269   0.801  -2.372
    1  UNL  C22   35   1.079   0.365  -2.245
    1  UNL  C23   36   1.229   0.372  -2.270
    1  UNL  C24   37   1.050   0.341  -2.097
    1  UNL  C25   38   0.851   1.123  -2.212
    1  UNL  C26   39   0.858   1.273  -2.182
    1  UNL  C27   40   0.988   1.059  -2.191
    1  UNL  C28   41   1.312   0.613  -2.581
    1  UNL  C29   42   1.400   0.680  -2.687
    1  UNL  C30   43   1.297   0.464  -2.610
    1  UNL  C31   44   1.123   1.130  -2.705
    1  UNL  C32   45   1.253   1.211  -2.706
    1  UNL  C33   46   1.004   1.219  -2.737
    1  UNL    H   47   0.472   0.860  -2.384
    1  UNL   H1   48   0.970   0.543  -2.207
    1  UNL   H2   49   1.193   1.072  -2.511
    1  UNL   H3   50   0.764   1.191  -2.391
    1  UNL   H4   51   0.681   0.502  -2.545
    1  UNL   H5   52   1.136   0.680  -2.673
    1  UNL   H6   53   0.565   1.030  -2.670
    1  UNL   H7   54   0.734   1.052  -2.630
    1  UNL   H8   55   0.614   1.164  -2.569
    1  UNL   H9   56   0.805   0.352  -2.528
    1  UNL  H10   57   0.913   0.266  -2.421
    1  UNL  H11   58   0.978   0.374  -2.542
    1  UNL  H12   59   0.916   0.952  -2.698
    1  UNL  H13   60   0.919   0.797  -2.617
    1  UNL  H14   61   1.018   0.824  -2.759
    1  UNL  H15   62   0.626   0.385  -2.290
    1  UNL  H16   63   0.385   0.480  -2.442
    1  UNL  H17   64   0.435   0.537  -2.284
    1  UNL  H18   65   0.383   0.372  -2.305
    1  UNL  H19   66   0.532   0.314  -2.567
    1  UNL  H20   67   0.527   0.209  -2.427
    1  UNL  H21   68   0.680   0.260  -2.493
    1  UNL  H22   69   0.372   0.994  -2.574
    1  UNL  H23   70   0.465   0.750  -2.720
    1  UNL  H24   71   0.520   0.913  -2.748
    1  UNL  H25   72   0.354   0.870  -2.782
    1  UNL  H26   73   0.281   0.713  -2.564
    1  UNL  H27   74   0.190   0.865  -2.555
    1  UNL  H28   75   0.355   0.748  -2.335
    1  UNL  H29   76   0.180   0.748  -2.344
    1  UNL  H30   77   0.267   0.899  -2.329
    1  UNL  H31   78   1.039   0.283  -2.301
    1  UNL  H32   79   1.271   0.454  -2.216
    1  UNL  H33   80   1.247   0.387  -2.375
    1  UNL  H34   81   1.275   0.281  -2.239
    1  UNL  H35   82   1.090   0.422  -2.039
    1  UNL  H36   83   1.097   0.250  -2.066
    1  UNL  H37   84   0.945   0.334  -2.081
    1  UNL  H38   85   0.783   1.078  -2.143
    1  UNL  H39   86   0.926   1.320  -2.250
    1  UNL  H40   87   0.891   1.288  -2.082
    1  UNL  H41   88   0.761   1.316  -2.194
    1  UNL  H42   89   1.059   1.102  -2.259
    1  UNL  H43   90   0.982   0.954  -2.210
    1  UNL  H44   91   1.021   1.075  -2.091
    1  UNL  H45   92   1.361   0.624  -2.486
    1  UNL  H46   93   1.353   0.670  -2.783
    1  UNL  H47   94   1.496   0.633  -2.689
    1  UNL  H48   95   1.412   0.784  -2.663
    1  UNL  H49   96   1.249   0.451  -2.705
    1  UNL  H50   97   1.238   0.419  -2.533
    1  UNL  H51   98   1.393   0.418  -2.612
    1  UNL  H52   99   1.131   1.054  -2.780
    1  UNL  H53  100   1.247   1.287  -2.631
    1  UNL  H54  101   1.266   1.256  -2.802
    1  UNL  H55  102   1.336   1.147  -2.685
    1  UNL  H56  103   0.995   1.295  -2.663
    1  UNL  H57  104   0.915   1.159  -2.739
    1  UNL  H58  105   1.018   1.264  -2.833
   26.31000    22.22000    15.87600
