; h2eb1_GMX.top created by acpype (v: 2023.10.27) on Thu Sep  4 07:59:48 2025

[ defaults ]
; nbfunc        comb-rule       gen-pairs       fudgeLJ fudgeQQ
1               2               yes             0.5     0.8333333333

; Include h2eb1_GMX.itp topology
#include "h2eb1_GMX.itp"

; Ligand position restraints
#ifdef POSRES_LIG
#include "posre_h2eb1.itp"
#endif

[ system ]
 h2eb1

[ molecules ]
; Compound        nmols
 h2eb1            1     
