; h1ibp_GMX_OPLS.itp created by acpype (v: 2023.10.27) on Thu Sep  4 07:59:30 2025

; For OPLS atomtypes manual fine tuning
; AC_at:OPLS_at:OPLScode: Possible_Alternatives (see ffoplsaa.atp and ffoplsaanb.itp)
; ca:CA:opls_145: ['166', '501', '502']
; c3:CT:opls_135: ['136', '137', '149', '157', '158', '206', '209', '210', '223B', '224B', '245', '246', '274', '283', '284', '285', '292', '292B', '293B', '296', '307', '308', '505']
; c:C:opls_235: ['271']
; o:O:opls_236: ['272']
; oh:OH:opls_154: ['167']
; ho:HO:opls_155: ['168']
; ha:HA:opls_146: []
; hc:HC:opls_140: []

[ moleculetype ]
;name            nrexcl
 h1ibp            3

[ atoms ]
;   nr  type  resi  res  atom  cgnr     charge      mass       ; qtot   bond_type
     1 opls_145     1   UNL     C    1    -0.099300     12.01100 ; qtot -0.099  CA  
     2 opls_145     1   UNL    C1    2    -0.113000     12.01100 ; qtot -0.212  CA  
     3 opls_145     1   UNL    C2    3    -0.130000     12.01100 ; qtot -0.342  CA  
     4 opls_145     1   UNL    C3    4    -0.066300     12.01100 ; qtot -0.409  CA  
     5 opls_145     1   UNL    C4    5    -0.130000     12.01100 ; qtot -0.539  CA  
     6 opls_145     1   UNL    C5    6    -0.113000     12.01100 ; qtot -0.652  CA  
     7 opls_135     1   UNL    C6    7    -0.055400     12.01100 ; qtot -0.707  CT  
     8 opls_135     1   UNL    C7    8    -0.090100     12.01100 ; qtot -0.797  CT  
     9 opls_235     1   UNL    C8    9     0.642101     12.01100 ; qtot -0.155  C   
    10 opls_236     1   UNL     O   10    -0.553000     15.99940 ; qtot -0.708  O   
    11 opls_154     1   UNL    O1   11    -0.606100     15.99940 ; qtot -1.314  OH  
    12 opls_155     1   UNL     H   12     0.443000      1.00800 ; qtot -0.871  HO  
    13 opls_135     1   UNL    C9   13    -0.038100     12.01100 ; qtot -0.909  CT  
    14 opls_135     1   UNL   C10   14    -0.063700     12.01100 ; qtot -0.973  CT  
    15 opls_135     1   UNL   C11   15    -0.092100     12.01100 ; qtot -1.065  CT  
    16 opls_135     1   UNL   C12   16    -0.092100     12.01100 ; qtot -1.157  CT  
    17 opls_146     1   UNL    H1   17     0.143000      1.00800 ; qtot -1.014  HA  
    18 opls_146     1   UNL    H2   18     0.135000      1.00800 ; qtot -0.879  HA  
    19 opls_146     1   UNL    H3   19     0.135000      1.00800 ; qtot -0.744  HA  
    20 opls_146     1   UNL    H4   20     0.143000      1.00800 ; qtot -0.601  HA  
    21 opls_140     1   UNL    H5   21     0.085700      1.00800 ; qtot -0.515  HC  
    22 opls_140     1   UNL    H6   22     0.051033      1.00800 ; qtot -0.464  HC  
    23 opls_140     1   UNL    H7   23     0.051033      1.00800 ; qtot -0.413  HC  
    24 opls_140     1   UNL    H8   24     0.051033      1.00800 ; qtot -0.362  HC  
    25 opls_140     1   UNL    H9   25     0.050200      1.00800 ; qtot -0.312  HC  
    26 opls_140     1   UNL   H10   26     0.050200      1.00800 ; qtot -0.262  HC  
    27 opls_140     1   UNL   H11   27     0.050700      1.00800 ; qtot -0.211  HC  
    28 opls_140     1   UNL   H12   28     0.035200      1.00800 ; qtot -0.176  HC  
    29 opls_140     1   UNL   H13   29     0.035200      1.00800 ; qtot -0.141  HC  
    30 opls_140     1   UNL   H14   30     0.035200      1.00800 ; qtot -0.106  HC  
    31 opls_140     1   UNL   H15   31     0.035200      1.00800 ; qtot -0.070  HC  
    32 opls_140     1   UNL   H16   32     0.035200      1.00800 ; qtot -0.035  HC  
    33 opls_140     1   UNL   H17   33     0.035200      1.00800 ; qtot  0.000  HC  

[ bonds ]
;   ai     aj funct   r             k
     1      2   1 ;    1.3986e-01    2.9644e+05 ;      C - C1         CA - CA    
     1      6   1 ;    1.3986e-01    2.9644e+05 ;      C - C5         CA - CA    
     1      7   1 ;    1.5147e-01    2.0410e+05 ;      C - C6         CA - CT    
     2      3   1 ;    1.3986e-01    2.9644e+05 ;     C1 - C2         CA - CA    
     2     17   1 ;    1.0860e-01    3.0183e+05 ;     C1 - H1         CA - HA    
     3      4   1 ;    1.3986e-01    2.9644e+05 ;     C2 - C3         CA - CA    
     3     18   1 ;    1.0860e-01    3.0183e+05 ;     C2 - H2         CA - HA    
     4      5   1 ;    1.3986e-01    2.9644e+05 ;     C3 - C4         CA - CA    
     4     13   1 ;    1.5147e-01    2.0410e+05 ;     C3 - C9         CA - CT    
     5      6   1 ;    1.3986e-01    2.9644e+05 ;     C4 - C5         CA - CA    
     5     19   1 ;    1.0860e-01    3.0183e+05 ;     C4 - H3         CA - HA    
     6     20   1 ;    1.0860e-01    3.0183e+05 ;     C5 - H4         CA - HA    
     7      8   1 ;    1.5354e-01    1.9154e+05 ;     C6 - C7         CT - CT    
     7      9   1 ;    1.5270e-01    1.9652e+05 ;     C6 - C8         CT - C     
     7     21   1 ;    1.0962e-01    2.8891e+05 ;     C6 - H5         CT - HC    
     8     22   1 ;    1.0962e-01    2.8891e+05 ;     C7 - H6         CT - HC    
     8     23   1 ;    1.0962e-01    2.8891e+05 ;     C7 - H7         CT - HC    
     8     24   1 ;    1.0962e-01    2.8891e+05 ;     C7 - H8         CT - HC    
     9     10   1 ;    1.2190e-01    4.9421e+05 ;     C8 - O           C - O     
     9     11   1 ;    1.3556e-01    3.0064e+05 ;     C8 - O1          C - OH    
    11     12   1 ;    9.7250e-02    4.4811e+05 ;     O1 - H          OH - HO    
    13     14   1 ;    1.5354e-01    1.9154e+05 ;     C9 - C10        CT - CT    
    13     25   1 ;    1.0962e-01    2.8891e+05 ;     C9 - H9         CT - HC    
    13     26   1 ;    1.0962e-01    2.8891e+05 ;     C9 - H10        CT - HC    
    14     15   1 ;    1.5354e-01    1.9154e+05 ;    C10 - C11        CT - CT    
    14     16   1 ;    1.5354e-01    1.9154e+05 ;    C10 - C12        CT - CT    
    14     27   1 ;    1.0962e-01    2.8891e+05 ;    C10 - H11        CT - HC    
    15     28   1 ;    1.0962e-01    2.8891e+05 ;    C11 - H12        CT - HC    
    15     29   1 ;    1.0962e-01    2.8891e+05 ;    C11 - H13        CT - HC    
    15     30   1 ;    1.0962e-01    2.8891e+05 ;    C11 - H14        CT - HC    
    16     31   1 ;    1.0962e-01    2.8891e+05 ;    C12 - H15        CT - HC    
    16     32   1 ;    1.0962e-01    2.8891e+05 ;    C12 - H16        CT - HC    
    16     33   1 ;    1.0962e-01    2.8891e+05 ;    C12 - H17        CT - HC    

[ pairs ]
;   ai     aj    funct
     1      4      1 ;      C - C3    
     1     10      1 ;      C - O     
     1     11      1 ;      C - O1    
     1     18      1 ;      C - H2    
     1     19      1 ;      C - H3    
     1     22      1 ;      C - H6    
     1     23      1 ;      C - H7    
     1     24      1 ;      C - H8    
     2      5      1 ;     C1 - C4    
     2      8      1 ;     C1 - C7    
     2      9      1 ;     C1 - C8    
     2     13      1 ;     C1 - C9    
     2     20      1 ;     C1 - H4    
     2     21      1 ;     C1 - H5    
     3     14      1 ;     C2 - C10   
     3     19      1 ;     C2 - H3    
     3     25      1 ;     C2 - H9    
     3     26      1 ;     C2 - H10   
     4     15      1 ;     C3 - C11   
     4     16      1 ;     C3 - C12   
     4     17      1 ;     C3 - H1    
     4     20      1 ;     C3 - H4    
     4     27      1 ;     C3 - H11   
     5     14      1 ;     C4 - C10   
     5     18      1 ;     C4 - H2    
     5     25      1 ;     C4 - H9    
     5     26      1 ;     C4 - H10   
     6      3      1 ;     C5 - C2    
     6      8      1 ;     C5 - C7    
     6      9      1 ;     C5 - C8    
     6     13      1 ;     C5 - C9    
     6     17      1 ;     C5 - H1    
     6     21      1 ;     C5 - H5    
     7      3      1 ;     C6 - C2    
     7      5      1 ;     C6 - C4    
     7     12      1 ;     C6 - H     
     7     17      1 ;     C6 - H1    
     7     20      1 ;     C6 - H4    
     8     10      1 ;     C7 - O     
     8     11      1 ;     C7 - O1    
     9     22      1 ;     C8 - H6    
     9     23      1 ;     C8 - H7    
     9     24      1 ;     C8 - H8    
    10     12      1 ;      O - H     
    10     21      1 ;      O - H5    
    11     21      1 ;     O1 - H5    
    13     18      1 ;     C9 - H2    
    13     19      1 ;     C9 - H3    
    13     28      1 ;     C9 - H12   
    13     29      1 ;     C9 - H13   
    13     30      1 ;     C9 - H14   
    13     31      1 ;     C9 - H15   
    13     32      1 ;     C9 - H16   
    13     33      1 ;     C9 - H17   
    15     25      1 ;    C11 - H9    
    15     26      1 ;    C11 - H10   
    15     31      1 ;    C11 - H15   
    15     32      1 ;    C11 - H16   
    15     33      1 ;    C11 - H17   
    16     25      1 ;    C12 - H9    
    16     26      1 ;    C12 - H10   
    16     28      1 ;    C12 - H12   
    16     29      1 ;    C12 - H13   
    16     30      1 ;    C12 - H14   
    17     18      1 ;     H1 - H2    
    19     20      1 ;     H3 - H4    
    21     22      1 ;     H5 - H6    
    21     23      1 ;     H5 - H7    
    21     24      1 ;     H5 - H8    
    25     27      1 ;     H9 - H11   
    26     27      1 ;    H10 - H11   
    27     28      1 ;    H11 - H12   
    27     29      1 ;    H11 - H13   
    27     30      1 ;    H11 - H14   
    27     31      1 ;    H11 - H15   
    27     32      1 ;    H11 - H16   
    27     33      1 ;    H11 - H17   

[ angles ]
;   ai     aj     ak    funct   theta         cth
     1      2      3      1 ;    1.2002e+02    5.3279e+02 ;      C - C1   - C2       CA -   CA - CA  
     1      2     17      1 ;    1.1988e+02    3.7572e+02 ;      C - C1   - H1       CA -   CA - HA  
     1      6      5      1 ;    1.2002e+02    5.3279e+02 ;      C - C5   - C4       CA -   CA - CA  
     1      6     20      1 ;    1.1988e+02    3.7572e+02 ;      C - C5   - H4       CA -   CA - HA  
     1      7      8      1 ;    1.1242e+02    5.0484e+02 ;      C - C6   - C7       CA -   CT - CT  
     1      7      9      1 ;    1.1116e+02    5.0911e+02 ;      C - C6   - C8       CA -   CT - C   
     1      7     21      1 ;    1.1063e+02    3.6493e+02 ;      C - C6   - H5       CA -   CT - HC  
     2      1      6      1 ;    1.2002e+02    5.3279e+02 ;     C1 - C    - C5       CA -   CA - CA  
     2      1      7      1 ;    1.2083e+02    5.0827e+02 ;     C1 - C    - C6       CA -   CA - CT  
     2      3      4      1 ;    1.2002e+02    5.3279e+02 ;     C1 - C2   - C3       CA -   CA - CA  
     2      3     18      1 ;    1.1988e+02    3.7572e+02 ;     C1 - C2   - H2       CA -   CA - HA  
     3      2     17      1 ;    1.1988e+02    3.7572e+02 ;     C2 - C1   - H1       CA -   CA - HA  
     3      4      5      1 ;    1.2002e+02    5.3279e+02 ;     C2 - C3   - C4       CA -   CA - CA  
     3      4     13      1 ;    1.2083e+02    5.0827e+02 ;     C2 - C3   - C9       CA -   CA - CT  
     4      3     18      1 ;    1.1988e+02    3.7572e+02 ;     C3 - C2   - H2       CA -   CA - HA  
     4      5      6      1 ;    1.2002e+02    5.3279e+02 ;     C3 - C4   - C5       CA -   CA - CA  
     4      5     19      1 ;    1.1988e+02    3.7572e+02 ;     C3 - C4   - H3       CA -   CA - HA  
     4     13     14      1 ;    1.1242e+02    5.0484e+02 ;     C3 - C9   - C10      CA -   CT - CT  
     4     13     25      1 ;    1.1063e+02    3.6493e+02 ;     C3 - C9   - H9       CA -   CT - HC  
     4     13     26      1 ;    1.1063e+02    3.6493e+02 ;     C3 - C9   - H10      CA -   CT - HC  
     5      4     13      1 ;    1.2083e+02    5.0827e+02 ;     C4 - C3   - C9       CA -   CA - CT  
     5      6     20      1 ;    1.1988e+02    3.7572e+02 ;     C4 - C5   - H4       CA -   CA - HA  
     6      1      7      1 ;    1.2083e+02    5.0827e+02 ;     C5 - C    - C6       CA -   CA - CT  
     6      5     19      1 ;    1.1988e+02    3.7572e+02 ;     C5 - C4   - H3       CA -   CA - HA  
     7      8     22      1 ;    1.0968e+02    3.6208e+02 ;     C6 - C7   - H6       CT -   CT - HC  
     7      8     23      1 ;    1.0968e+02    3.6208e+02 ;     C6 - C7   - H7       CT -   CT - HC  
     7      8     24      1 ;    1.0968e+02    3.6208e+02 ;     C6 - C7   - H8       CT -   CT - HC  
     7      9     10      1 ;    1.2290e+02    6.3973e+02 ;     C6 - C8   - O        CT -    C - O   
     7      9     11      1 ;    1.1274e+02    6.4785e+02 ;     C6 - C8   - O1       CT -    C - OH  
     8      7      9      1 ;    1.1143e+02    5.0509e+02 ;     C7 - C6   - C8       CT -   CT - C   
     8      7     21      1 ;    1.0968e+02    3.6208e+02 ;     C7 - C6   - H5       CT -   CT - HC  
     9      7     21      1 ;    1.0895e+02    3.6510e+02 ;     C8 - C6   - H5        C -   CT - HC  
     9     11     12      1 ;    1.0654e+02    5.7287e+02 ;     C8 - O1   - H         C -   OH - HO  
    10      9     11      1 ;    1.2209e+02    8.5379e+02 ;      O - C8   - O1        O -    C - OH  
    13     14     15      1 ;    1.1263e+02    5.0099e+02 ;     C9 - C10  - C11      CT -   CT - CT  
    13     14     16      1 ;    1.1263e+02    5.0099e+02 ;     C9 - C10  - C12      CT -   CT - CT  
    13     14     27      1 ;    1.0968e+02    3.6208e+02 ;     C9 - C10  - H11      CT -   CT - HC  
    14     13     25      1 ;    1.0968e+02    3.6208e+02 ;    C10 - C9   - H9       CT -   CT - HC  
    14     13     26      1 ;    1.0968e+02    3.6208e+02 ;    C10 - C9   - H10      CT -   CT - HC  
    14     15     28      1 ;    1.0968e+02    3.6208e+02 ;    C10 - C11  - H12      CT -   CT - HC  
    14     15     29      1 ;    1.0968e+02    3.6208e+02 ;    C10 - C11  - H13      CT -   CT - HC  
    14     15     30      1 ;    1.0968e+02    3.6208e+02 ;    C10 - C11  - H14      CT -   CT - HC  
    14     16     31      1 ;    1.0968e+02    3.6208e+02 ;    C10 - C12  - H15      CT -   CT - HC  
    14     16     32      1 ;    1.0968e+02    3.6208e+02 ;    C10 - C12  - H16      CT -   CT - HC  
    14     16     33      1 ;    1.0968e+02    3.6208e+02 ;    C10 - C12  - H17      CT -   CT - HC  
    15     14     16      1 ;    1.1263e+02    5.0099e+02 ;    C11 - C10  - C12      CT -   CT - CT  
    15     14     27      1 ;    1.0968e+02    3.6208e+02 ;    C11 - C10  - H11      CT -   CT - HC  
    16     14     27      1 ;    1.0968e+02    3.6208e+02 ;    C12 - C10  - H11      CT -   CT - HC  
    22      8     23      1 ;    1.0773e+02    2.9957e+02 ;     H6 - C7   - H7       HC -   CT - HC  
    22      8     24      1 ;    1.0773e+02    2.9957e+02 ;     H6 - C7   - H8       HC -   CT - HC  
    23      8     24      1 ;    1.0773e+02    2.9957e+02 ;     H7 - C7   - H8       HC -   CT - HC  
    25     13     26      1 ;    1.0773e+02    2.9957e+02 ;     H9 - C9   - H10      HC -   CT - HC  
    28     15     29      1 ;    1.0773e+02    2.9957e+02 ;    H12 - C11  - H13      HC -   CT - HC  
    28     15     30      1 ;    1.0773e+02    2.9957e+02 ;    H12 - C11  - H14      HC -   CT - HC  
    29     15     30      1 ;    1.0773e+02    2.9957e+02 ;    H13 - C11  - H14      HC -   CT - HC  
    31     16     32      1 ;    1.0773e+02    2.9957e+02 ;    H15 - C12  - H16      HC -   CT - HC  
    31     16     33      1 ;    1.0773e+02    2.9957e+02 ;    H15 - C12  - H17      HC -   CT - HC  
    32     16     33      1 ;    1.0773e+02    2.9957e+02 ;    H16 - C12  - H17      HC -   CT - HC  

[ dihedrals ] ; propers
; for gromacs 4.5 or higher, using funct 9
;    i      j      k      l   func   phase     kd      pn
     1      2      3      4      9 ;   180.00  15.16700   2 ;      C-    C1-    C2-    C3
     1      2      3     18      9 ;   180.00  15.16700   2 ;      C-    C1-    C2-    H2
     1      6      5      4      9 ;   180.00  15.16700   2 ;      C-    C5-    C4-    C3
     1      6      5     19      9 ;   180.00  15.16700   2 ;      C-    C5-    C4-    H3
     1      7      8     22      9 ;     0.00   0.65084   3 ;      C-    C6-    C7-    H6
     1      7      8     23      9 ;     0.00   0.65084   3 ;      C-    C6-    C7-    H7
     1      7      8     24      9 ;     0.00   0.65084   3 ;      C-    C6-    C7-    H8
     1      7      9     10      9 ;   180.00   0.00000   2 ;      C-    C6-    C8-     O
     1      7      9     11      9 ;   180.00   0.00000   2 ;      C-    C6-    C8-    O1
     2      1      6      5      9 ;   180.00  15.16700   2 ;     C1-     C-    C5-    C4
     2      1      6     20      9 ;   180.00  15.16700   2 ;     C1-     C-    C5-    H4
     2      1      7      8      9 ;   180.00   1.00416   2 ;     C1-     C-    C6-    C7
     2      1      7      9      9 ;     0.00   0.00000   0 ;     C1-     C-    C6-    C8
     2      1      7     21      9 ;     0.00   0.00000   0 ;     C1-     C-    C6-    H5
     2      3      4      5      9 ;   180.00  15.16700   2 ;     C1-    C2-    C3-    C4
     2      3      4     13      9 ;   180.00  15.16700   2 ;     C1-    C2-    C3-    C9
     3      4      5      6      9 ;   180.00  15.16700   2 ;     C2-    C3-    C4-    C5
     3      4      5     19      9 ;   180.00  15.16700   2 ;     C2-    C3-    C4-    H3
     3      4     13     14      9 ;   180.00   1.00416   2 ;     C2-    C3-    C9-   C10
     3      4     13     25      9 ;     0.00   0.00000   0 ;     C2-    C3-    C9-    H9
     3      4     13     26      9 ;     0.00   0.00000   0 ;     C2-    C3-    C9-   H10
     4      3      2     17      9 ;   180.00  15.16700   2 ;     C3-    C2-    C1-    H1
     4      5      6     20      9 ;   180.00  15.16700   2 ;     C3-    C4-    C5-    H4
     4     13     14     15      9 ;     0.00   0.65084   3 ;     C3-    C9-   C10-   C11
     4     13     14     16      9 ;     0.00   0.65084   3 ;     C3-    C9-   C10-   C12
     4     13     14     27      9 ;     0.00   0.65084   3 ;     C3-    C9-   C10-   H11
     5      4      3     18      9 ;   180.00  15.16700   2 ;     C4-    C3-    C2-    H2
     5      4     13     14      9 ;   180.00   1.00416   2 ;     C4-    C3-    C9-   C10
     5      4     13     25      9 ;     0.00   0.00000   0 ;     C4-    C3-    C9-    H9
     5      4     13     26      9 ;     0.00   0.00000   0 ;     C4-    C3-    C9-   H10
     6      1      2      3      9 ;   180.00  15.16700   2 ;     C5-     C-    C1-    C2
     6      1      2     17      9 ;   180.00  15.16700   2 ;     C5-     C-    C1-    H1
     6      1      7      8      9 ;   180.00   1.00416   2 ;     C5-     C-    C6-    C7
     6      1      7      9      9 ;     0.00   0.00000   0 ;     C5-     C-    C6-    C8
     6      1      7     21      9 ;     0.00   0.00000   0 ;     C5-     C-    C6-    H5
     6      5      4     13      9 ;   180.00  15.16700   2 ;     C5-    C4-    C3-    C9
     7      1      2      3      9 ;   180.00  15.16700   2 ;     C6-     C-    C1-    C2
     7      1      2     17      9 ;   180.00  15.16700   2 ;     C6-     C-    C1-    H1
     7      1      6      5      9 ;   180.00  15.16700   2 ;     C6-     C-    C5-    C4
     7      1      6     20      9 ;   180.00  15.16700   2 ;     C6-     C-    C5-    H4
     7      9     11     12      9 ;   180.00   7.53120   2 ;     C6-    C8-    O1-     H
     8      7      9     10      9 ;     0.00   2.84512   1 ;     C7-    C6-    C8-     O
     8      7      9     10      9 ;   180.00   0.83680   2 ;     C7-    C6-    C8-     O
     8      7      9     10      9 ;   180.00   1.84096   3 ;     C7-    C6-    C8-     O
     8      7      9     11      9 ;   180.00   0.00000   2 ;     C7-    C6-    C8-    O1
     9      7      8     22      9 ;     0.00   0.65084   3 ;     C8-    C6-    C7-    H6
     9      7      8     23      9 ;     0.00   0.65084   3 ;     C8-    C6-    C7-    H7
     9      7      8     24      9 ;     0.00   0.65084   3 ;     C8-    C6-    C7-    H8
    10      9      7     21      9 ;     0.00  16.86152   1 ;      O-    C8-    C6-    H5
    10      9      7     21      9 ;   180.00  15.31344   2 ;      O-    C8-    C6-    H5
    10      9     11     12      9 ;     0.00   7.94960   1 ;      O-    C8-    O1-     H
    10      9     11     12      9 ;   180.00   9.62320   2 ;      O-    C8-    O1-     H
    11      9      7     21      9 ;   180.00   0.00000   2 ;     O1-    C8-    C6-    H5
    13      4      3     18      9 ;   180.00  15.16700   2 ;     C9-    C3-    C2-    H2
    13      4      5     19      9 ;   180.00  15.16700   2 ;     C9-    C3-    C4-    H3
    13     14     15     28      9 ;     0.00   0.54392   3 ;     C9-   C10-   C11-   H12
    13     14     15     29      9 ;     0.00   0.54392   3 ;     C9-   C10-   C11-   H13
    13     14     15     30      9 ;     0.00   0.54392   3 ;     C9-   C10-   C11-   H14
    13     14     16     31      9 ;     0.00   0.54392   3 ;     C9-   C10-   C12-   H15
    13     14     16     32      9 ;     0.00   0.54392   3 ;     C9-   C10-   C12-   H16
    13     14     16     33      9 ;     0.00   0.54392   3 ;     C9-   C10-   C12-   H17
    15     14     13     25      9 ;     0.00   0.54392   3 ;    C11-   C10-    C9-    H9
    15     14     13     26      9 ;     0.00   0.54392   3 ;    C11-   C10-    C9-   H10
    15     14     16     31      9 ;     0.00   0.54392   3 ;    C11-   C10-   C12-   H15
    15     14     16     32      9 ;     0.00   0.54392   3 ;    C11-   C10-   C12-   H16
    15     14     16     33      9 ;     0.00   0.54392   3 ;    C11-   C10-   C12-   H17
    16     14     13     25      9 ;     0.00   0.54392   3 ;    C12-   C10-    C9-    H9
    16     14     13     26      9 ;     0.00   0.54392   3 ;    C12-   C10-    C9-   H10
    16     14     15     28      9 ;     0.00   0.54392   3 ;    C12-   C10-   C11-   H12
    16     14     15     29      9 ;     0.00   0.54392   3 ;    C12-   C10-   C11-   H13
    16     14     15     30      9 ;     0.00   0.54392   3 ;    C12-   C10-   C11-   H14
    17      2      3     18      9 ;   180.00  15.16700   2 ;     H1-    C1-    C2-    H2
    19      5      6     20      9 ;   180.00  15.16700   2 ;     H3-    C4-    C5-    H4
    21      7      8     22      9 ;     0.00   0.50208   3 ;     H5-    C6-    C7-    H6
    21      7      8     23      9 ;     0.00   0.50208   3 ;     H5-    C6-    C7-    H7
    21      7      8     24      9 ;     0.00   0.50208   3 ;     H5-    C6-    C7-    H8
    25     13     14     27      9 ;     0.00   0.50208   3 ;     H9-    C9-   C10-   H11
    26     13     14     27      9 ;     0.00   0.50208   3 ;    H10-    C9-   C10-   H11
    27     14     15     28      9 ;     0.00   0.50208   3 ;    H11-   C10-   C11-   H12
    27     14     15     29      9 ;     0.00   0.50208   3 ;    H11-   C10-   C11-   H13
    27     14     15     30      9 ;     0.00   0.50208   3 ;    H11-   C10-   C11-   H14
    27     14     16     31      9 ;     0.00   0.50208   3 ;    H11-   C10-   C12-   H15
    27     14     16     32      9 ;     0.00   0.50208   3 ;    H11-   C10-   C12-   H16
    27     14     16     33      9 ;     0.00   0.50208   3 ;    H11-   C10-   C12-   H17

[ dihedrals ] ; impropers
; treated as propers in GROMACS to use correct AMBER analytical function
;    i      j      k      l   func   phase     kd      pn
     1      3      2     17      4 ;   180.00   4.60240   2 ;      C-    C2-    C1-    H1
     1      5      6     20      4 ;   180.00   4.60240   2 ;      C-    C4-    C5-    H4
     2      4      3     18      4 ;   180.00   4.60240   2 ;     C1-    C3-    C2-    H2
     4      6      5     19      4 ;   180.00   4.60240   2 ;     C3-    C5-    C4-    H3
     7      1      6      2      4 ;   180.00   4.60240   2 ;     C6-     C-    C5-    C1
     7     10      9     11      4 ;   180.00   4.60240   2 ;     C6-     O-    C8-    O1
    13      3      4      5      4 ;   180.00   4.60240   2 ;     C9-    C2-    C3-    C4
