Results/Site1/HOLO/ENA/ENA-Site
   111
  12.3210000  -2.9900000   2.8750000   9.0870000  -1.7050000  -0.8210000
  12.1460000  -5.4320000  -0.3580000  10.1860000  -1.5580000   2.5390000
  15.0750000  -7.0840000   0.4040000   9.4190000  -3.9960000   0.4360000
  14.5680000  -3.5040000   2.9660000  11.3280000  -1.4100000  -1.2930000
  12.1190000  -7.7330000  -0.3420000  11.3590000  -0.0850000   1.1830000
  13.9620000  -6.1060000   2.1880000   9.7400000  -5.2910000  -1.4630000
  10.1970000   0.0650000   0.2840000  12.8800000  -5.2550000   2.7270000
  10.0460000  -6.4990000  -0.6630000  12.5610000  -1.5680000   2.7980000
   9.0300000  -2.8830000  -1.6480000  13.5590000  -5.3070000  -0.1760000
  11.2610000  -1.0570000   2.1900000  14.2550000  -6.2580000   0.8230000
   9.4160000  -4.0990000  -0.7970000  13.3940000  -3.8320000   2.8750000
  10.3020000  -1.0880000  -0.7060000  11.5560000  -6.6540000  -0.4790000
  12.5810000   0.6690000   0.8960000  14.7850000  -6.8420000   3.1480000
   9.8720000  -5.4200000  -2.9180000  12.7680000  -0.9930000   4.1870000
  11.6340000  -0.0350000   4.5480000  14.1180000  -0.2850000   4.2820000
  12.2770000  -5.7340000   4.0460000  12.8280000  -4.8950000   5.2010000
  10.7390000  -5.6720000   4.0430000  10.1020000  -6.4280000   2.8860000
  10.0860000   1.3830000  -0.4690000   9.8010000   1.1120000  -1.9490000
   8.9960000   2.3020000   0.1110000   7.5890000   1.9440000  -0.3510000
  14.2100000  -5.3770000  -1.5590000  13.1700000  -5.7160000  -2.6240000
  14.9080000  -4.0590000  -1.8900000   7.5940000  -3.0190000  -2.1340000
   6.8430000  -1.6970000  -1.9750000   6.8730000  -4.1370000  -1.3830000
   9.4170000  -7.7740000  -1.2230000   7.8970000  -7.6080000  -1.3210000
   9.9870000  -8.1580000  -2.6020000  10.5960000  -9.5510000  -2.6390000
   9.3140000   0.0570000   0.8880000  12.0790000  -5.3110000   2.0200000
   9.5950000  -6.3530000   0.2960000  13.4320000  -1.3010000   2.2360000
   9.7000000  -2.8170000  -2.4800000  13.7000000  -4.3640000   0.3080000
  12.4010000   1.3460000   0.0870000  13.3630000  -0.0090000   0.6260000
  12.8720000   1.2210000   1.7650000  15.5230000  -7.4120000   2.6220000
  14.1640000  -7.5010000   3.7180000  15.2700000  -6.1510000   3.8050000
   9.6260000  -4.4880000  -3.3820000   9.2070000  -6.1810000  -3.2700000
  10.8790000  -5.6860000  -3.1630000  12.7620000  -1.8020000   4.8880000
  11.6240000   0.7820000   3.8570000  11.7840000   0.3380000   5.5390000
  10.7000000  -0.5540000   4.5000000  14.1440000   0.5280000   3.5870000
  14.9010000  -0.9770000   4.0500000  14.2550000   0.0890000   5.2750000
  12.5550000  -6.7600000   4.1720000  12.5450000  -3.8720000   5.0660000
  13.8950000  -4.9700000   5.2190000  12.4290000  -5.2560000   6.1260000
  10.4420000  -4.6460000   3.9810000  10.4040000  -6.1390000   4.9460000
  10.4130000  -5.9910000   1.9600000   9.0370000  -6.3720000   2.9670000
  10.4090000  -7.4530000   2.9170000  11.0220000   1.8910000  -0.3610000
   8.8640000   0.6040000  -2.0450000  10.5800000   0.5020000  -2.3560000
   9.7600000   2.0400000  -2.4800000   9.2060000   3.3070000  -0.1900000
   9.0180000   2.1830000   1.1740000   7.5250000   2.0500000  -1.4140000
   6.8830000   2.5980000   0.1160000   7.3710000   0.9320000  -0.0800000
  14.9450000  -6.1540000  -1.5470000  12.4240000  -4.9490000  -2.6510000
  12.7100000  -6.6530000  -2.3880000  13.6470000  -5.7840000  -3.5790000
  14.1880000  -3.2680000  -1.9070000  15.3770000  -4.1350000  -2.8490000
  15.6490000  -3.8510000  -1.1460000   7.6170000  -3.2720000  -3.1740000
   6.8100000  -1.4280000  -0.9400000   5.8460000  -1.8060000  -2.3470000
   7.3480000  -0.9320000  -2.5270000   6.8400000  -3.9020000  -0.3400000
   7.3980000  -5.0580000  -1.5250000   5.8760000  -4.2330000  -1.7580000
   9.6580000  -8.5670000  -0.5460000   7.6680000  -6.8140000  -2.0000000
   7.5000000  -7.3770000  -0.3540000   7.4610000  -8.5180000  -1.6770000
  10.7450000  -7.4500000  -2.8650000   9.1700000  -8.1530000  -3.2930000
  11.4200000  -9.5980000  -1.9580000  10.9390000  -9.7640000  -3.6300000
   9.8570000 -10.2710000  -2.3550000
