h1eb1_GMX.gro created by acpype (v: 2023.10.27) on Thu Sep  4 04:45:22 2025
 105
    1  UNL    O    1   1.308  -0.376   0.374
    1  UNL   O1    2   1.236   0.051   0.081
    1  UNL   O2    3   0.977  -0.330  -0.022
    1  UNL   O3    4   1.473  -0.137   0.185
    1  UNL   O4    5   1.133  -0.227   0.391
    1  UNL   O5    6   1.311  -0.372   0.115
    1  UNL   O6    7   0.967  -0.064  -0.206
    1  UNL   O7    8   1.213   0.275   0.034
    1  UNL   O8    9   1.068  -0.341  -0.233
    1  UNL    N   10   1.341  -0.038   0.349
    1  UNL   N1   11   1.133  -0.516   0.080
    1  UNL   N2   12   0.983  -0.012   0.020
    1  UNL    C   13   1.360  -0.155   0.438
    1  UNL   C1   14   1.144  -0.498  -0.066
    1  UNL   C2   15   1.025   0.127  -0.007
    1  UNL   C3   16   1.372   0.072   0.126
    1  UNL   C4   17   1.223  -0.475   0.312
    1  UNL   C5   18   0.881  -0.228  -0.054
    1  UNL   C6   19   1.400  -0.043   0.222
    1  UNL   C7   20   1.252  -0.254   0.400
    1  UNL   C8   21   1.226  -0.449   0.161
    1  UNL   C9   22   0.948  -0.095  -0.088
    1  UNL  C10   23   1.167   0.161   0.039
    1  UNL  C11   24   1.061  -0.380  -0.117
    1  UNL  C12   25   1.259   0.073   0.399
    1  UNL  C13   26   1.024  -0.599   0.131
    1  UNL  C14   27   0.961  -0.050   0.160
    1  UNL  C15   28   1.283  -0.611   0.345
    1  UNL  C16   29   1.421  -0.595   0.409
    1  UNL  C17   30   1.190  -0.690   0.437
    1  UNL  C18   31   1.356  -0.127   0.588
    1  UNL  C19   32   1.359  -0.258   0.666
    1  UNL  C20   33   1.471  -0.032   0.627
    1  UNL  C21   34   1.435   0.067   0.737
    1  UNL  C22   35   1.111  -0.623  -0.147
    1  UNL  C23   36   0.986  -0.601  -0.232
    1  UNL  C24   37   1.229  -0.664  -0.235
    1  UNL  C25   38   1.464   0.069   0.005
    1  UNL  C26   39   1.507   0.210  -0.034
    1  UNL  C27   40   1.396  -0.000  -0.113
    1  UNL  C28   41   0.783  -0.274  -0.162
    1  UNL  C29   42   0.680  -0.166  -0.191
    1  UNL  C30   43   0.714  -0.404  -0.121
    1  UNL  C31   44   0.925   0.228   0.051
    1  UNL  C32   45   0.886   0.330  -0.056
    1  UNL  C33   46   0.984   0.298   0.173
    1  UNL    H   47   1.460  -0.192   0.423
    1  UNL   H1   48   1.247  -0.476  -0.082
    1  UNL   H2   49   1.027   0.135  -0.113
    1  UNL   H3   50   1.386   0.166   0.175
    1  UNL   H4   51   1.122  -0.471   0.346
    1  UNL   H5   52   0.823  -0.211   0.034
    1  UNL   H6   53   1.254   0.149   0.325
    1  UNL   H7   54   1.303   0.112   0.488
    1  UNL   H8   55   1.161   0.037   0.420
    1  UNL   H9   56   0.967  -0.638   0.048
    1  UNL  H10   57   0.960  -0.540   0.193
    1  UNL  H11   58   1.064  -0.680   0.188
    1  UNL  H12   59   0.931  -0.153   0.164
    1  UNL  H13   60   0.885   0.011   0.202
    1  UNL  H14   61   1.052  -0.038   0.215
    1  UNL  H15   62   1.295  -0.665   0.253
    1  UNL  H16   63   1.412  -0.541   0.500
    1  UNL  H17   64   1.485  -0.541   0.342
    1  UNL  H18   65   1.463  -0.691   0.428
    1  UNL  H19   66   1.178  -0.637   0.529
    1  UNL  H20   67   1.233  -0.786   0.456
    1  UNL  H21   68   1.095  -0.703   0.389
    1  UNL  H22   69   1.264  -0.077   0.613
    1  UNL  H23   70   1.450  -0.310   0.643
    1  UNL  H24   71   1.275  -0.318   0.638
    1  UNL  H25   72   1.355  -0.238   0.771
    1  UNL  H26   73   1.500   0.023   0.540
    1  UNL  H27   74   1.550  -0.094   0.665
    1  UNL  H28   75   1.356   0.130   0.703
    1  UNL  H29   76   1.521   0.126   0.761
    1  UNL  H30   77   1.403   0.013   0.824
    1  UNL  H31   78   1.091  -0.703  -0.078
    1  UNL  H32   79   1.004  -0.522  -0.302
    1  UNL  H33   80   0.904  -0.575  -0.169
    1  UNL  H34   81   0.963  -0.691  -0.285
    1  UNL  H35   82   1.250  -0.586  -0.304
    1  UNL  H36   83   1.204  -0.754  -0.288
    1  UNL  H37   84   1.315  -0.681  -0.173
    1  UNL  H38   85   1.551   0.013   0.031
    1  UNL  H39   86   1.421   0.268  -0.060
    1  UNL  H40   87   1.574   0.206  -0.118
    1  UNL  H41   88   1.557   0.256   0.049
    1  UNL  H42   89   1.308   0.055  -0.141
    1  UNL  H43   90   1.368  -0.100  -0.086
    1  UNL  H44   91   1.463  -0.004  -0.197
    1  UNL  H45   92   0.839  -0.293  -0.252
    1  UNL  H46   93   0.624  -0.146  -0.103
    1  UNL  H47   94   0.614  -0.199  -0.269
    1  UNL  H48   95   0.730  -0.076  -0.223
    1  UNL  H49   96   0.658  -0.388  -0.031
    1  UNL  H50   97   0.788  -0.480  -0.103
    1  UNL  H51   98   0.648  -0.436  -0.199
    1  UNL  H52   99   0.838   0.175   0.081
    1  UNL  H53  100   0.972   0.384  -0.088
    1  UNL  H54  101   0.814   0.398  -0.015
    1  UNL  H55  102   0.843   0.279  -0.140
    1  UNL  H56  103   1.072   0.352   0.144
    1  UNL  H57  104   1.009   0.225   0.247
    1  UNL  H58  105   0.912   0.366   0.213
   19.19400    23.68400    22.55800
