%VERSION  VERSION_STAMP = V0001.000  DATE = 09/10/25  03:44:31
%FLAG TITLE
%FORMAT(20a4)

%FLAG POINTERS
%FORMAT(10I8)
     102      36      57      45     126      66     198     177       0       0
     570       1      45      66     177       9      21     368       1       0
       0       0       0       0       0       0       0       0     102       0
       0
%FLAG ATOM_NAME
%FORMAT(20a4)
O   O1  O2  O3  O4  O5  O6  O7  O8  N   N1  N2  C   C1  C2  C3  C4  C5  C6  C7  
C8  C9  C10 C11 C12 C13 C14 C15 C16 C17 C18 C19 C20 C21 C22 C23 C24 C25 C26 C27 
C28 C29 C30 C31 C32 H   H1  H2  H3  H4  H5  H6  H7  H8  H9  H10 H11 H12 H13 H14 
H15 H16 H17 H18 H19 H20 H21 H22 H23 H24 H25 H26 H27 H28 H29 H30 H31 H32 H33 H34 
H35 H36 H37 H38 H39 H40 H41 H42 H43 H44 H45 H46 H47 H48 H49 H50 H51 H52 H53 H54 
H55 H56 
%FLAG CHARGE
%FORMAT(5E16.8)
 -7.68798837E+00 -7.68798837E+00 -7.68798837E+00 -1.04432001E+01 -1.04432001E+01
 -1.04432001E+01 -9.85219627E+00 -9.85219627E+00 -9.85219627E+00 -8.48187931E+00
 -8.48187931E+00 -8.48187931E+00  1.15469248E+00  1.15469248E+00  1.15469248E+00
  1.66611956E+00  1.66611956E+00  1.66611956E+00  1.18037317E+01  1.18037317E+01
  1.18037317E+01  1.13360928E+01  1.13360928E+01  1.13360928E+01  1.31140426E+00
  1.31140426E+00  1.31140426E+00 -1.31260694E+00 -1.72687270E+00 -1.72687270E+00
 -1.19720511E+00 -1.86960798E+00 -1.86960798E+00 -1.19720511E+00 -1.86960798E+00
 -1.86960798E+00 -1.31260694E+00 -1.72687270E+00 -1.72687270E+00 -1.31260694E+00
 -1.72687270E+00 -1.72687270E+00 -1.19720511E+00 -1.86960798E+00 -1.86960798E+00
  2.36343231E+00  2.36343231E+00  2.36343231E+00  1.65883064E+00  1.65883064E+00
  1.65883064E+00  8.99580284E-01  8.99580284E-01  8.99580284E-01  8.99580284E-01
  8.99580284E-01  8.99580284E-01  8.99580284E-01  8.99580284E-01  8.99580284E-01
  1.45838534E+00  7.79112659E-01  7.79112659E-01  7.79112659E-01  7.79112659E-01
  7.79112659E-01  7.79112659E-01  1.12431591E+00  8.19602609E-01  8.19602609E-01
  8.19602609E-01  8.19602609E-01  8.19602609E-01  8.19602609E-01  1.12431591E+00
  8.19602609E-01  8.19602609E-01  8.19602609E-01  8.19602609E-01  8.19602609E-01
  8.19602609E-01  1.45838534E+00  7.79112659E-01  7.79112659E-01  7.79112659E-01
  7.79112659E-01  7.79112659E-01  7.79112659E-01  1.45838534E+00  7.79112659E-01
  7.79112659E-01  7.79112659E-01  7.79112659E-01  7.79112659E-01  7.79112659E-01
  1.12431591E+00  8.19602609E-01  8.19602609E-01  8.19602609E-01  8.19602609E-01
  8.19602609E-01  8.19602609E-01
%FLAG ATOMIC_NUMBER
%FORMAT(10I8)
       8       8       8       8       8       8       8       8       8       7
       7       7       6       6       6       6       6       6       6       6
       6       6       6       6       6       6       6       6       6       6
       6       6       6       6       6       6       6       6       6       6
       6       6       6       6       6       1       1       1       1       1
       1       1       1       1       1       1       1       1       1       1
       1       1       1       1       1       1       1       1       1       1
       1       1       1       1       1       1       1       1       1       1
       1       1       1       1       1       1       1       1       1       1
       1       1       1       1       1       1       1       1       1       1
       1       1
%FLAG MASS
%FORMAT(5E16.8)
  1.60000000E+01  1.60000000E+01  1.60000000E+01  1.60000000E+01  1.60000000E+01
  1.60000000E+01  1.60000000E+01  1.60000000E+01  1.60000000E+01  1.40100000E+01
  1.40100000E+01  1.40100000E+01  1.20100000E+01  1.20100000E+01  1.20100000E+01
  1.20100000E+01  1.20100000E+01  1.20100000E+01  1.20100000E+01  1.20100000E+01
  1.20100000E+01  1.20100000E+01  1.20100000E+01  1.20100000E+01  1.20100000E+01
  1.20100000E+01  1.20100000E+01  1.20100000E+01  1.20100000E+01  1.20100000E+01
  1.20100000E+01  1.20100000E+01  1.20100000E+01  1.20100000E+01  1.20100000E+01
  1.20100000E+01  1.20100000E+01  1.20100000E+01  1.20100000E+01  1.20100000E+01
  1.20100000E+01  1.20100000E+01  1.20100000E+01  1.20100000E+01  1.20100000E+01
  1.00800000E+00  1.00800000E+00  1.00800000E+00  1.00800000E+00  1.00800000E+00
  1.00800000E+00  1.00800000E+00  1.00800000E+00  1.00800000E+00  1.00800000E+00
  1.00800000E+00  1.00800000E+00  1.00800000E+00  1.00800000E+00  1.00800000E+00
  1.00800000E+00  1.00800000E+00  1.00800000E+00  1.00800000E+00  1.00800000E+00
  1.00800000E+00  1.00800000E+00  1.00800000E+00  1.00800000E+00  1.00800000E+00
  1.00800000E+00  1.00800000E+00  1.00800000E+00  1.00800000E+00  1.00800000E+00
  1.00800000E+00  1.00800000E+00  1.00800000E+00  1.00800000E+00  1.00800000E+00
  1.00800000E+00  1.00800000E+00  1.00800000E+00  1.00800000E+00  1.00800000E+00
  1.00800000E+00  1.00800000E+00  1.00800000E+00  1.00800000E+00  1.00800000E+00
  1.00800000E+00  1.00800000E+00  1.00800000E+00  1.00800000E+00  1.00800000E+00
  1.00800000E+00  1.00800000E+00  1.00800000E+00  1.00800000E+00  1.00800000E+00
  1.00800000E+00  1.00800000E+00
%FLAG ATOM_TYPE_INDEX
%FORMAT(10I8)
      30      30      30      31      31      31      31      31      31      32
      32      32      33      33      33      33      33      33      34      34
      34      34      34      34      33      33      33      33      33      33
      33      33      33      33      33      33      33      33      33      33
      33      33      33      33      33      35      35      35      35      35
      35      35      35      35      35      35      35      35      35      35
      36      36      36      36      36      36      36      36      36      36
      36      36      36      36      36      36      36      36      36      36
      36      36      36      36      36      36      36      36      36      36
      36      36      36      36      36      36      36      36      36      36
      36      36
%FLAG NUMBER_EXCLUDED_ATOMS
%FORMAT(10I8)
      15      15      15       7       7       7       6       6       6      15
      15      15      19      19      19      14      14      14      13      13
      13       8       8       8       5       5       5      10       9       8
      10       9       8      10       9       8      10       9       8      10
       9       8      10       9       8       1       1       1       1       1
       1       2       1       1       2       1       1       2       1       1
       6       2       1       1       2       1       1       6       2       1
       1       2       1       1       6       2       1       1       2       1
       1       6       2       1       1       2       1       1       6       2
       1       1       2       1       1       6       2       1       1       2
       1       1
%FLAG NONBONDED_PARM_INDEX
%FORMAT(10I8)
       1       2       4       7      11      16      22      29      37      46
      56      67      79      92     106     121     137     154     172     191
     211     232     254     277     301     326     352     379     407     436
     466     497     529     562     596     631       2       3       5       8
      12      17      23      30      38      47      57      68      80      93
     107     122     138     155     173     192     212     233     255     278
     302     327     353     380     408     437     467     498     530     563
     597     632       4       5       6       9      13      18      24      31
      39      48      58      69      81      94     108     123     139     156
     174     193     213     234     256     279     303     328     354     381
     409     438     468     499     531     564     598     633       7       8
       9      10      14      19      25      32      40      49      59      70
      82      95     109     124     140     157     175     194     214     235
     257     280     304     329     355     382     410     439     469     500
     532     565     599     634      11      12      13      14      15      20
      26      33      41      50      60      71      83      96     110     125
     141     158     176     195     215     236     258     281     305     330
     356     383     411     440     470     501     533     566     600     635
      16      17      18      19      20      21      27      34      42      51
      61      72      84      97     111     126     142     159     177     196
     216     237     259     282     306     331     357     384     412     441
     471     502     534     567     601     636      22      23      24      25
      26      27      28      35      43      52      62      73      85      98
     112     127     143     160     178     197     217     238     260     283
     307     332     358     385     413     442     472     503     535     568
     602     637      29      30      31      32      33      34      35      36
      44      53      63      74      86      99     113     128     144     161
     179     198     218     239     261     284     308     333     359     386
     414     443     473     504     536     569     603     638      37      38
      39      40      41      42      43      44      45      54      64      75
      87     100     114     129     145     162     180     199     219     240
     262     285     309     334     360     387     415     444     474     505
     537     570     604     639      46      47      48      49      50      51
      52      53      54      55      65      76      88     101     115     130
     146     163     181     200     220     241     263     286     310     335
     361     388     416     445     475     506     538     571     605     640
      56      57      58      59      60      61      62      63      64      65
      66      77      89     102     116     131     147     164     182     201
     221     242     264     287     311     336     362     389     417     446
     476     507     539     572     606     641      67      68      69      70
      71      72      73      74      75      76      77      78      90     103
     117     132     148     165     183     202     222     243     265     288
     312     337     363     390     418     447     477     508     540     573
     607     642      79      80      81      82      83      84      85      86
      87      88      89      90      91     104     118     133     149     166
     184     203     223     244     266     289     313     338     364     391
     419     448     478     509     541     574     608     643      92      93
      94      95      96      97      98      99     100     101     102     103
     104     105     119     134     150     167     185     204     224     245
     267     290     314     339     365     392     420     449     479     510
     542     575     609     644     106     107     108     109     110     111
     112     113     114     115     116     117     118     119     120     135
     151     168     186     205     225     246     268     291     315     340
     366     393     421     450     480     511     543     576     610     645
     121     122     123     124     125     126     127     128     129     130
     131     132     133     134     135     136     152     169     187     206
     226     247     269     292     316     341     367     394     422     451
     481     512     544     577     611     646     137     138     139     140
     141     142     143     144     145     146     147     148     149     150
     151     152     153     170     188     207     227     248     270     293
     317     342     368     395     423     452     482     513     545     578
     612     647     154     155     156     157     158     159     160     161
     162     163     164     165     166     167     168     169     170     171
     189     208     228     249     271     294     318     343     369     396
     424     453     483     514     546     579     613     648     172     173
     174     175     176     177     178     179     180     181     182     183
     184     185     186     187     188     189     190     209     229     250
     272     295     319     344     370     397     425     454     484     515
     547     580     614     649     191     192     193     194     195     196
     197     198     199     200     201     202     203     204     205     206
     207     208     209     210     230     251     273     296     320     345
     371     398     426     455     485     516     548     581     615     650
     211     212     213     214     215     216     217     218     219     220
     221     222     223     224     225     226     227     228     229     230
     231     252     274     297     321     346     372     399     427     456
     486     517     549     582     616     651     232     233     234     235
     236     237     238     239     240     241     242     243     244     245
     246     247     248     249     250     251     252     253     275     298
     322     347     373     400     428     457     487     518     550     583
     617     652     254     255     256     257     258     259     260     261
     262     263     264     265     266     267     268     269     270     271
     272     273     274     275     276     299     323     348     374     401
     429     458     488     519     551     584     618     653     277     278
     279     280     281     282     283     284     285     286     287     288
     289     290     291     292     293     294     295     296     297     298
     299     300     324     349     375     402     430     459     489     520
     552     585     619     654     301     302     303     304     305     306
     307     308     309     310     311     312     313     314     315     316
     317     318     319     320     321     322     323     324     325     350
     376     403     431     460     490     521     553     586     620     655
     326     327     328     329     330     331     332     333     334     335
     336     337     338     339     340     341     342     343     344     345
     346     347     348     349     350     351     377     404     432     461
     491     522     554     587     621     656     352     353     354     355
     356     357     358     359     360     361     362     363     364     365
     366     367     368     369     370     371     372     373     374     375
     376     377     378     405     433     462     492     523     555     588
     622     657     379     380     381     382     383     384     385     386
     387     388     389     390     391     392     393     394     395     396
     397     398     399     400     401     402     403     404     405     406
     434     463     493     524     556     589     623     658     407     408
     409     410     411     412     413     414     415     416     417     418
     419     420     421     422     423     424     425     426     427     428
     429     430     431     432     433     434     435     464     494     525
     557     590     624     659     436     437     438     439     440     441
     442     443     444     445     446     447     448     449     450     451
     452     453     454     455     456     457     458     459     460     461
     462     463     464     465     495     526     558     591     625     660
     466     467     468     469     470     471     472     473     474     475
     476     477     478     479     480     481     482     483     484     485
     486     487     488     489     490     491     492     493     494     495
     496     527     559     592     626     661     497     498     499     500
     501     502     503     504     505     506     507     508     509     510
     511     512     513     514     515     516     517     518     519     520
     521     522     523     524     525     526     527     528     560     593
     627     662     529     530     531     532     533     534     535     536
     537     538     539     540     541     542     543     544     545     546
     547     548     549     550     551     552     553     554     555     556
     557     558     559     560     561     594     628     663     562     563
     564     565     566     567     568     569     570     571     572     573
     574     575     576     577     578     579     580     581     582     583
     584     585     586     587     588     589     590     591     592     593
     594     595     629     664     596     597     598     599     600     601
     602     603     604     605     606     607     608     609     610     611
     612     613     614     615     616     617     618     619     620     621
     622     623     624     625     626     627     628     629     630     665
     631     632     633     634     635     636     637     638     639     640
     641     642     643     644     645     646     647     648     649     650
     651     652     653     654     655     656     657     658     659     660
     661     662     663     664     665     666
%FLAG RESIDUE_LABEL
%FORMAT(20a4)
UNL 
%FLAG RESIDUE_POINTER
%FORMAT(10I8)
       1
%FLAG BOND_FORCE_CONSTANT
%FORMAT(5E16.8)
  2.82265774E+02  3.51314532E+02  5.90595124E+02  2.54457457E+02  3.17459369E+02
  2.34847036E+02  2.28895793E+02  3.44216061E+02  3.45255736E+02
%FLAG BOND_EQUIL_VALUE
%FORMAT(5E16.8)
  1.42730000E+00  1.36210000E+00  1.21900000E+00  1.46430000E+00  1.39670000E+00
  1.52700000E+00  1.53540000E+00  1.09690000E+00  1.09620000E+00
%FLAG ANGLE_FORCE_CONSTANT
%FORMAT(5E16.8)
  7.70996654E+01  7.74402486E+01  5.61998088E+01  1.01259560E+02  7.79696463E+01
  8.66802103E+01  7.64495698E+01  6.53895793E+01  6.49498088E+01  4.80903442E+01
  6.51900096E+01  7.72394837E+01  7.62105641E+01  5.98697419E+01  4.32695985E+01
  8.94299713E+01  6.03597036E+01  4.37404398E+01  4.32803537E+01  3.56405354E+01
  3.57994742E+01
%FLAG ANGLE_EQUIL_VALUE
%FORMAT(5E16.8)
  1.90712127E+00  1.87832334E+00  1.92579630E+00  2.15024564E+00  1.93382481E+00
  2.13925006E+00  2.14500965E+00  1.95372156E+00  1.96838233E+00  1.89822009E+00
  2.04482775E+00  2.07397475E+00  2.03767190E+00  1.96576434E+00  1.91427712E+00
  2.02144034E+00  1.94482039E+00  1.89141331E+00  1.91270633E+00  1.89455490E+00
  1.88024320E+00
%FLAG DIHEDRAL_FORCE_CONSTANT
%FORMAT(5E16.8)
  0.00000000E+00  2.10000000E-01  1.07000000E+00  0.00000000E+00  1.55554493E-01
  1.55554493E-01  0.00000000E+00  2.50000000E-01  0.00000000E+00  0.00000000E+00
  0.00000000E+00  0.00000000E+00  2.10000000E-01  1.07000000E+00  0.00000000E+00
  1.55554493E-01  1.55554493E-01  0.00000000E+00  2.50000000E-01  0.00000000E+00
  0.00000000E+00  0.00000000E+00  0.00000000E+00  2.10000000E-01  1.07000000E+00
  0.00000000E+00  1.55554493E-01  1.55554493E-01  0.00000000E+00  2.50000000E-01
  0.00000000E+00  0.00000000E+00  0.00000000E+00  2.50000000E+00  2.50000000E+00
  6.80000000E-01  2.00000000E-01  4.40000000E-01  8.00000000E-01  8.00000000E-02
  2.50000000E+00  2.50000000E+00  6.80000000E-01  2.00000000E-01  4.40000000E-01
  8.00000000E-01  8.00000000E-02  2.50000000E+00  2.50000000E+00  6.80000000E-01
  2.00000000E-01  4.40000000E-01  8.00000000E-01  8.00000000E-02  0.00000000E+00
  6.80000000E-01  2.00000000E-01  4.40000000E-01  8.00000000E-01  8.00000000E-02
  1.40000000E+00  2.70000000E+00  0.00000000E+00  6.80000000E-01  2.00000000E-01
  4.40000000E-01  8.00000000E-01  8.00000000E-02  1.40000000E+00  2.70000000E+00
  0.00000000E+00  6.80000000E-01  2.00000000E-01  4.40000000E-01  8.00000000E-01
  8.00000000E-02  1.00000000E-01  1.00000000E-01  1.55554493E-01  0.00000000E+00
  7.10000000E-01  0.00000000E+00  1.00000000E-01  1.00000000E-01  1.55554493E-01
  0.00000000E+00  7.10000000E-01  0.00000000E+00  1.00000000E-01  1.00000000E-01
  1.55554493E-01  0.00000000E+00  7.10000000E-01  0.00000000E+00  5.00000000E-01
  2.93000000E+00  1.41000000E+00  0.00000000E+00  0.00000000E+00  0.00000000E+00
  7.50000000E-01  1.89000000E+00  3.29000000E+00  1.30000000E-01  1.30000000E-01
  1.30000000E-01  1.30000000E-01  1.30000000E-01  1.30000000E-01  5.00000000E-01
  2.93000000E+00  1.41000000E+00  0.00000000E+00  0.00000000E+00  0.00000000E+00
  1.30000000E-01  1.30000000E-01  1.30000000E-01  1.30000000E-01  1.30000000E-01
  1.30000000E-01  5.00000000E-01  2.93000000E+00  1.41000000E+00  0.00000000E+00
  0.00000000E+00  0.00000000E+00  7.50000000E-01  1.89000000E+00  3.29000000E+00
  1.30000000E-01  1.30000000E-01  1.30000000E-01  1.30000000E-01  1.30000000E-01
  1.30000000E-01  1.40000000E+00  2.70000000E+00  7.50000000E-01  1.89000000E+00
  3.29000000E+00  5.00000000E-01  2.93000000E+00  1.41000000E+00  1.30000000E-01
  1.30000000E-01  1.30000000E-01  1.30000000E-01  1.30000000E-01  1.30000000E-01
  5.00000000E-01  2.93000000E+00  1.41000000E+00  1.30000000E-01  1.30000000E-01
  1.30000000E-01  1.30000000E-01  1.30000000E-01  1.30000000E-01  5.00000000E-01
  2.93000000E+00  1.41000000E+00  1.30000000E-01  1.30000000E-01  1.30000000E-01
  1.30000000E-01  1.30000000E-01  1.30000000E-01  6.40000000E-01  3.90000000E-01
  2.26000000E+00  3.00000000E-02  6.50000000E-01  0.00000000E+00  0.00000000E+00
  0.00000000E+00  0.00000000E+00  0.00000000E+00  4.00000000E-02  4.60000000E-01
  0.00000000E+00  4.00000000E-02  4.60000000E-01  1.55554493E-01  6.40000000E-01
  3.90000000E-01  2.26000000E+00  3.00000000E-02  6.50000000E-01  0.00000000E+00
  0.00000000E+00  0.00000000E+00  0.00000000E+00  3.83334130E-01  0.00000000E+00
  4.00000000E-02  4.60000000E-01  0.00000000E+00  4.00000000E-02  4.60000000E-01
  1.55554493E-01  6.40000000E-01  3.90000000E-01  2.26000000E+00  3.00000000E-02
  6.50000000E-01  0.00000000E+00  0.00000000E+00  0.00000000E+00  0.00000000E+00
  3.83334130E-01  0.00000000E+00  4.00000000E-02  4.60000000E-01  0.00000000E+00
  4.00000000E-02  4.60000000E-01  1.55554493E-01  3.83334130E-01  3.82999522E-01
  8.00000000E-01  3.83334130E-01  0.00000000E+00  0.00000000E+00  4.00000000E-02
  4.60000000E-01  0.00000000E+00  4.00000000E-02  4.60000000E-01  1.55554493E-01
  3.82999522E-01  8.00000000E-01  3.83334130E-01  0.00000000E+00  0.00000000E+00
  4.00000000E-02  4.60000000E-01  0.00000000E+00  4.00000000E-02  4.60000000E-01
  1.55554493E-01  3.82999522E-01  8.00000000E-01  3.83334130E-01  0.00000000E+00
  0.00000000E+00  4.00000000E-02  4.60000000E-01  0.00000000E+00  4.00000000E-02
  4.60000000E-01  1.55554493E-01  0.00000000E+00  0.00000000E+00  0.00000000E+00
  0.00000000E+00  0.00000000E+00  0.00000000E+00  1.55554493E-01  1.30000000E-01
  1.30000000E-01  1.30000000E-01  1.55554493E-01  1.30000000E-01  1.30000000E-01
  1.30000000E-01  1.55554493E-01  1.30000000E-01  1.30000000E-01  1.30000000E-01
  1.55554493E-01  1.30000000E-01  1.30000000E-01  1.30000000E-01  1.55554493E-01
  1.30000000E-01  1.30000000E-01  1.30000000E-01  1.55554493E-01  1.30000000E-01
  1.30000000E-01  1.30000000E-01  1.55554493E-01  1.30000000E-01  1.30000000E-01
  1.30000000E-01  1.55554493E-01  1.30000000E-01  1.30000000E-01  1.30000000E-01
  1.55554493E-01  1.30000000E-01  1.30000000E-01  1.30000000E-01  1.55554493E-01
  1.30000000E-01  1.30000000E-01  1.30000000E-01  1.55554493E-01  1.30000000E-01
  1.30000000E-01  1.30000000E-01  1.55554493E-01  1.30000000E-01  1.30000000E-01
  1.30000000E-01  1.55554493E-01  1.55554493E-01  1.55554493E-01  1.55554493E-01
  1.55554493E-01  1.55554493E-01  1.20000000E-01  1.20000000E-01  1.20000000E-01
  1.20000000E-01  1.20000000E-01  1.20000000E-01  1.20000000E-01  1.20000000E-01
  1.20000000E-01  1.20000000E-01  1.20000000E-01  1.20000000E-01  1.20000000E-01
  1.20000000E-01  1.20000000E-01  1.20000000E-01  1.20000000E-01  1.20000000E-01
  1.20000000E-01  1.20000000E-01  1.20000000E-01  1.20000000E-01  1.20000000E-01
  1.20000000E-01  1.20000000E-01  1.20000000E-01  1.20000000E-01  1.20000000E-01
  1.20000000E-01  1.20000000E-01  1.20000000E-01  1.20000000E-01  1.20000000E-01
  1.20000000E-01  1.20000000E-01  1.20000000E-01  1.10000000E+00  1.05000000E+01
  0.00000000E+00  0.00000000E+00  0.00000000E+00  0.00000000E+00  0.00000000E+00
  0.00000000E+00  0.00000000E+00  0.00000000E+00  0.00000000E+00  0.00000000E+00
  0.00000000E+00  0.00000000E+00  0.00000000E+00  0.00000000E+00  0.00000000E+00
  0.00000000E+00  0.00000000E+00  0.00000000E+00
%FLAG DIHEDRAL_PERIODICITY
%FORMAT(5E16.8)
  1.00000000E+00  3.00000000E+00  2.00000000E+00  2.00000000E+00  3.00000000E+00
  3.00000000E+00  1.00000000E+00  1.00000000E+00  2.00000000E+00  2.00000000E+00
  2.00000000E+00  1.00000000E+00  3.00000000E+00  2.00000000E+00  2.00000000E+00
  3.00000000E+00  3.00000000E+00  1.00000000E+00  1.00000000E+00  2.00000000E+00
  2.00000000E+00  2.00000000E+00  1.00000000E+00  3.00000000E+00  2.00000000E+00
  2.00000000E+00  3.00000000E+00  3.00000000E+00  1.00000000E+00  1.00000000E+00
  2.00000000E+00  2.00000000E+00  2.00000000E+00  2.00000000E+00  2.00000000E+00
  1.00000000E+00  2.00000000E+00  3.00000000E+00  1.00000000E+00  3.00000000E+00
  2.00000000E+00  2.00000000E+00  1.00000000E+00  2.00000000E+00  3.00000000E+00
  1.00000000E+00  3.00000000E+00  2.00000000E+00  2.00000000E+00  1.00000000E+00
  2.00000000E+00  3.00000000E+00  1.00000000E+00  3.00000000E+00  2.00000000E+00
  1.00000000E+00  2.00000000E+00  3.00000000E+00  1.00000000E+00  3.00000000E+00
  1.00000000E+00  2.00000000E+00  2.00000000E+00  1.00000000E+00  2.00000000E+00
  3.00000000E+00  1.00000000E+00  3.00000000E+00  1.00000000E+00  2.00000000E+00
  2.00000000E+00  1.00000000E+00  2.00000000E+00  3.00000000E+00  1.00000000E+00
  3.00000000E+00  3.00000000E+00  3.00000000E+00  3.00000000E+00  4.00000000E+00
  2.00000000E+00  2.00000000E+00  3.00000000E+00  3.00000000E+00  3.00000000E+00
  4.00000000E+00  2.00000000E+00  2.00000000E+00  3.00000000E+00  3.00000000E+00
  3.00000000E+00  4.00000000E+00  2.00000000E+00  2.00000000E+00  3.00000000E+00
  1.00000000E+00  2.00000000E+00  1.00000000E+00  1.00000000E+00  1.00000000E+00
  3.00000000E+00  1.00000000E+00  2.00000000E+00  3.00000000E+00  3.00000000E+00
  3.00000000E+00  3.00000000E+00  3.00000000E+00  3.00000000E+00  3.00000000E+00
  1.00000000E+00  2.00000000E+00  1.00000000E+00  1.00000000E+00  1.00000000E+00
  3.00000000E+00  3.00000000E+00  3.00000000E+00  3.00000000E+00  3.00000000E+00
  3.00000000E+00  3.00000000E+00  1.00000000E+00  2.00000000E+00  1.00000000E+00
  1.00000000E+00  1.00000000E+00  3.00000000E+00  1.00000000E+00  2.00000000E+00
  3.00000000E+00  3.00000000E+00  3.00000000E+00  3.00000000E+00  3.00000000E+00
  3.00000000E+00  1.00000000E+00  2.00000000E+00  3.00000000E+00  1.00000000E+00
  2.00000000E+00  3.00000000E+00  1.00000000E+00  2.00000000E+00  3.00000000E+00
  3.00000000E+00  3.00000000E+00  3.00000000E+00  3.00000000E+00  3.00000000E+00
  3.00000000E+00  1.00000000E+00  2.00000000E+00  3.00000000E+00  3.00000000E+00
  3.00000000E+00  3.00000000E+00  3.00000000E+00  3.00000000E+00  3.00000000E+00
  1.00000000E+00  2.00000000E+00  3.00000000E+00  3.00000000E+00  3.00000000E+00
  3.00000000E+00  3.00000000E+00  3.00000000E+00  1.00000000E+00  2.00000000E+00
  1.00000000E+00  3.00000000E+00  4.00000000E+00  2.00000000E+00  2.00000000E+00
  2.00000000E+00  2.00000000E+00  1.00000000E+00  2.00000000E+00  1.00000000E+00
  1.00000000E+00  2.00000000E+00  1.00000000E+00  3.00000000E+00  1.00000000E+00
  2.00000000E+00  1.00000000E+00  3.00000000E+00  4.00000000E+00  2.00000000E+00
  2.00000000E+00  2.00000000E+00  2.00000000E+00  3.00000000E+00  1.00000000E+00
  2.00000000E+00  1.00000000E+00  1.00000000E+00  2.00000000E+00  1.00000000E+00
  3.00000000E+00  1.00000000E+00  2.00000000E+00  1.00000000E+00  3.00000000E+00
  4.00000000E+00  2.00000000E+00  2.00000000E+00  2.00000000E+00  2.00000000E+00
  3.00000000E+00  1.00000000E+00  2.00000000E+00  1.00000000E+00  1.00000000E+00
  2.00000000E+00  1.00000000E+00  3.00000000E+00  3.00000000E+00  3.00000000E+00
  1.00000000E+00  3.00000000E+00  1.00000000E+00  1.00000000E+00  2.00000000E+00
  1.00000000E+00  1.00000000E+00  2.00000000E+00  1.00000000E+00  3.00000000E+00
  3.00000000E+00  1.00000000E+00  3.00000000E+00  1.00000000E+00  1.00000000E+00
  2.00000000E+00  1.00000000E+00  1.00000000E+00  2.00000000E+00  1.00000000E+00
  3.00000000E+00  3.00000000E+00  1.00000000E+00  3.00000000E+00  1.00000000E+00
  1.00000000E+00  2.00000000E+00  1.00000000E+00  1.00000000E+00  2.00000000E+00
  1.00000000E+00  3.00000000E+00  1.00000000E+00  1.00000000E+00  1.00000000E+00
  1.00000000E+00  1.00000000E+00  1.00000000E+00  3.00000000E+00  3.00000000E+00
  3.00000000E+00  3.00000000E+00  3.00000000E+00  3.00000000E+00  3.00000000E+00
  3.00000000E+00  3.00000000E+00  3.00000000E+00  3.00000000E+00  3.00000000E+00
  3.00000000E+00  3.00000000E+00  3.00000000E+00  3.00000000E+00  3.00000000E+00
  3.00000000E+00  3.00000000E+00  3.00000000E+00  3.00000000E+00  3.00000000E+00
  3.00000000E+00  3.00000000E+00  3.00000000E+00  3.00000000E+00  3.00000000E+00
  3.00000000E+00  3.00000000E+00  3.00000000E+00  3.00000000E+00  3.00000000E+00
  3.00000000E+00  3.00000000E+00  3.00000000E+00  3.00000000E+00  3.00000000E+00
  3.00000000E+00  3.00000000E+00  3.00000000E+00  3.00000000E+00  3.00000000E+00
  3.00000000E+00  3.00000000E+00  3.00000000E+00  3.00000000E+00  3.00000000E+00
  3.00000000E+00  3.00000000E+00  3.00000000E+00  3.00000000E+00  3.00000000E+00
  3.00000000E+00  3.00000000E+00  3.00000000E+00  3.00000000E+00  3.00000000E+00
  3.00000000E+00  3.00000000E+00  3.00000000E+00  3.00000000E+00  3.00000000E+00
  3.00000000E+00  3.00000000E+00  3.00000000E+00  3.00000000E+00  3.00000000E+00
  3.00000000E+00  3.00000000E+00  3.00000000E+00  3.00000000E+00  3.00000000E+00
  3.00000000E+00  3.00000000E+00  3.00000000E+00  3.00000000E+00  3.00000000E+00
  3.00000000E+00  3.00000000E+00  3.00000000E+00  3.00000000E+00  3.00000000E+00
  3.00000000E+00  3.00000000E+00  3.00000000E+00  3.00000000E+00  3.00000000E+00
  3.00000000E+00  3.00000000E+00  3.00000000E+00  2.00000000E+00  2.00000000E+00
  1.00000000E+00  1.00000000E+00  1.00000000E+00  1.00000000E+00  1.00000000E+00
  1.00000000E+00  1.00000000E+00  1.00000000E+00  1.00000000E+00  1.00000000E+00
  1.00000000E+00  1.00000000E+00  1.00000000E+00  1.00000000E+00  1.00000000E+00
  1.00000000E+00  1.00000000E+00  1.00000000E+00
%FLAG DIHEDRAL_PHASE
%FORMAT(5E16.8)
  3.14159265E+00  3.14159265E+00  3.14159265E+00  3.14159265E+00  0.00000000E+00
  0.00000000E+00  0.00000000E+00  0.00000000E+00  3.14159265E+00  3.14159265E+00
  3.14159265E+00  3.14159265E+00  3.14159265E+00  3.14159265E+00  3.14159265E+00
  0.00000000E+00  0.00000000E+00  0.00000000E+00  0.00000000E+00  3.14159265E+00
  3.14159265E+00  3.14159265E+00  3.14159265E+00  3.14159265E+00  3.14159265E+00
  3.14159265E+00  0.00000000E+00  0.00000000E+00  0.00000000E+00  0.00000000E+00
  3.14159265E+00  3.14159265E+00  3.14159265E+00  3.14159265E+00  3.14159265E+00
  0.00000000E+00  3.14159265E+00  3.14159265E+00  0.00000000E+00  3.14159265E+00
  3.14159265E+00  3.14159265E+00  0.00000000E+00  3.14159265E+00  3.14159265E+00
  0.00000000E+00  3.14159265E+00  3.14159265E+00  3.14159265E+00  0.00000000E+00
  3.14159265E+00  3.14159265E+00  0.00000000E+00  3.14159265E+00  3.14159265E+00
  0.00000000E+00  3.14159265E+00  3.14159265E+00  0.00000000E+00  3.14159265E+00
  3.14159265E+00  3.14159265E+00  3.14159265E+00  0.00000000E+00  3.14159265E+00
  3.14159265E+00  0.00000000E+00  3.14159265E+00  3.14159265E+00  3.14159265E+00
  3.14159265E+00  0.00000000E+00  3.14159265E+00  3.14159265E+00  0.00000000E+00
  3.14159265E+00  0.00000000E+00  0.00000000E+00  0.00000000E+00  3.14159265E+00
  3.14159265E+00  3.14159265E+00  0.00000000E+00  0.00000000E+00  0.00000000E+00
  3.14159265E+00  3.14159265E+00  3.14159265E+00  0.00000000E+00  0.00000000E+00
  0.00000000E+00  3.14159265E+00  3.14159265E+00  3.14159265E+00  0.00000000E+00
  0.00000000E+00  3.14159265E+00  0.00000000E+00  0.00000000E+00  0.00000000E+00
  0.00000000E+00  3.14159265E+00  3.14159265E+00  0.00000000E+00  0.00000000E+00
  0.00000000E+00  0.00000000E+00  0.00000000E+00  0.00000000E+00  0.00000000E+00
  0.00000000E+00  3.14159265E+00  0.00000000E+00  0.00000000E+00  0.00000000E+00
  0.00000000E+00  0.00000000E+00  0.00000000E+00  0.00000000E+00  0.00000000E+00
  0.00000000E+00  0.00000000E+00  0.00000000E+00  3.14159265E+00  0.00000000E+00
  0.00000000E+00  0.00000000E+00  0.00000000E+00  3.14159265E+00  3.14159265E+00
  0.00000000E+00  0.00000000E+00  0.00000000E+00  0.00000000E+00  0.00000000E+00
  0.00000000E+00  3.14159265E+00  3.14159265E+00  0.00000000E+00  3.14159265E+00
  3.14159265E+00  0.00000000E+00  0.00000000E+00  3.14159265E+00  0.00000000E+00
  0.00000000E+00  0.00000000E+00  0.00000000E+00  0.00000000E+00  0.00000000E+00
  0.00000000E+00  0.00000000E+00  3.14159265E+00  0.00000000E+00  0.00000000E+00
  0.00000000E+00  0.00000000E+00  0.00000000E+00  0.00000000E+00  0.00000000E+00
  0.00000000E+00  3.14159265E+00  0.00000000E+00  0.00000000E+00  0.00000000E+00
  0.00000000E+00  0.00000000E+00  0.00000000E+00  0.00000000E+00  3.14159265E+00
  0.00000000E+00  3.14159265E+00  3.14159265E+00  3.14159265E+00  3.14159265E+00
  3.14159265E+00  3.14159265E+00  0.00000000E+00  0.00000000E+00  3.14159265E+00
  0.00000000E+00  0.00000000E+00  3.14159265E+00  0.00000000E+00  0.00000000E+00
  3.14159265E+00  0.00000000E+00  3.14159265E+00  3.14159265E+00  3.14159265E+00
  3.14159265E+00  3.14159265E+00  3.14159265E+00  0.00000000E+00  0.00000000E+00
  0.00000000E+00  3.14159265E+00  0.00000000E+00  0.00000000E+00  3.14159265E+00
  0.00000000E+00  0.00000000E+00  3.14159265E+00  0.00000000E+00  3.14159265E+00
  3.14159265E+00  3.14159265E+00  3.14159265E+00  3.14159265E+00  3.14159265E+00
  0.00000000E+00  0.00000000E+00  0.00000000E+00  3.14159265E+00  0.00000000E+00
  0.00000000E+00  3.14159265E+00  0.00000000E+00  0.00000000E+00  0.00000000E+00
  3.14159265E+00  0.00000000E+00  0.00000000E+00  0.00000000E+00  0.00000000E+00
  3.14159265E+00  0.00000000E+00  0.00000000E+00  3.14159265E+00  0.00000000E+00
  0.00000000E+00  3.14159265E+00  0.00000000E+00  0.00000000E+00  0.00000000E+00
  0.00000000E+00  3.14159265E+00  0.00000000E+00  0.00000000E+00  3.14159265E+00
  0.00000000E+00  0.00000000E+00  3.14159265E+00  0.00000000E+00  0.00000000E+00
  0.00000000E+00  0.00000000E+00  3.14159265E+00  0.00000000E+00  0.00000000E+00
  3.14159265E+00  0.00000000E+00  0.00000000E+00  0.00000000E+00  0.00000000E+00
  0.00000000E+00  0.00000000E+00  0.00000000E+00  0.00000000E+00  0.00000000E+00
  0.00000000E+00  0.00000000E+00  0.00000000E+00  0.00000000E+00  0.00000000E+00
  0.00000000E+00  0.00000000E+00  0.00000000E+00  0.00000000E+00  0.00000000E+00
  0.00000000E+00  0.00000000E+00  0.00000000E+00  0.00000000E+00  0.00000000E+00
  0.00000000E+00  0.00000000E+00  0.00000000E+00  0.00000000E+00  0.00000000E+00
  0.00000000E+00  0.00000000E+00  0.00000000E+00  0.00000000E+00  0.00000000E+00
  0.00000000E+00  0.00000000E+00  0.00000000E+00  0.00000000E+00  0.00000000E+00
  0.00000000E+00  0.00000000E+00  0.00000000E+00  0.00000000E+00  0.00000000E+00
  0.00000000E+00  0.00000000E+00  0.00000000E+00  0.00000000E+00  0.00000000E+00
  0.00000000E+00  0.00000000E+00  0.00000000E+00  0.00000000E+00  0.00000000E+00
  0.00000000E+00  0.00000000E+00  0.00000000E+00  0.00000000E+00  0.00000000E+00
  0.00000000E+00  0.00000000E+00  0.00000000E+00  0.00000000E+00  0.00000000E+00
  0.00000000E+00  0.00000000E+00  0.00000000E+00  0.00000000E+00  0.00000000E+00
  0.00000000E+00  0.00000000E+00  0.00000000E+00  0.00000000E+00  0.00000000E+00
  0.00000000E+00  0.00000000E+00  0.00000000E+00  0.00000000E+00  0.00000000E+00
  0.00000000E+00  0.00000000E+00  0.00000000E+00  0.00000000E+00  0.00000000E+00
  0.00000000E+00  0.00000000E+00  0.00000000E+00  0.00000000E+00  0.00000000E+00
  0.00000000E+00  0.00000000E+00  0.00000000E+00  0.00000000E+00  0.00000000E+00
  0.00000000E+00  0.00000000E+00  0.00000000E+00  3.14159265E+00  3.14159265E+00
  0.00000000E+00  0.00000000E+00  0.00000000E+00  0.00000000E+00  0.00000000E+00
  0.00000000E+00  0.00000000E+00  0.00000000E+00  0.00000000E+00  0.00000000E+00
  0.00000000E+00  0.00000000E+00  0.00000000E+00  0.00000000E+00  0.00000000E+00
  0.00000000E+00  0.00000000E+00  0.00000000E+00
%FLAG SCEE_SCALE_FACTOR
%FORMAT(5E16.8)
  1.20004800E+00  1.20004800E+00  1.20004800E+00  1.20004800E+00  1.20004800E+00
  1.20004800E+00  1.20004800E+00  1.20004800E+00  1.20004800E+00  1.20004800E+00
  1.20004800E+00  1.20004800E+00  1.20004800E+00  1.20004800E+00  1.20004800E+00
  1.20004800E+00  1.20004800E+00  1.20004800E+00  1.20004800E+00  1.20004800E+00
  1.20004800E+00  1.20004800E+00  1.20004800E+00  1.20004800E+00  1.20004800E+00
  1.20004800E+00  1.20004800E+00  1.20004800E+00  1.20004800E+00  1.20004800E+00
  1.20004800E+00  1.20004800E+00  1.20004800E+00  1.20004800E+00  1.20004800E+00
  1.20004800E+00  1.20004800E+00  1.20004800E+00  1.20004800E+00  1.20004800E+00
  1.20004800E+00  1.20004800E+00  1.20004800E+00  1.20004800E+00  1.20004800E+00
  1.20004800E+00  1.20004800E+00  1.20004800E+00  1.20004800E+00  1.20004800E+00
  1.20004800E+00  1.20004800E+00  1.20004800E+00  1.20004800E+00  1.20004800E+00
  1.20004800E+00  1.20004800E+00  1.20004800E+00  1.20004800E+00  1.20004800E+00
  1.20004800E+00  1.20004800E+00  1.20004800E+00  1.20004800E+00  1.20004800E+00
  1.20004800E+00  1.20004800E+00  1.20004800E+00  1.20004800E+00  1.20004800E+00
  1.20004800E+00  1.20004800E+00  1.20004800E+00  1.20004800E+00  1.20004800E+00
  1.20004800E+00  1.20004800E+00  1.20004800E+00  1.20004800E+00  1.20004800E+00
  1.20004800E+00  1.20004800E+00  1.20004800E+00  1.20004800E+00  1.20004800E+00
  1.20004800E+00  1.20004800E+00  1.20004800E+00  1.20004800E+00  1.20004800E+00
  1.20004800E+00  1.20004800E+00  1.20004800E+00  1.20004800E+00  1.20004800E+00
  1.20004800E+00  1.20004800E+00  1.20004800E+00  1.20004800E+00  1.20004800E+00
  1.20004800E+00  1.20004800E+00  1.20004800E+00  1.20004800E+00  1.20004800E+00
  1.20004800E+00  1.20004800E+00  1.20004800E+00  1.20004800E+00  1.20004800E+00
  1.20004800E+00  1.20004800E+00  1.20004800E+00  1.20004800E+00  1.20004800E+00
  1.20004800E+00  1.20004800E+00  1.20004800E+00  1.20004800E+00  1.20004800E+00
  1.20004800E+00  1.20004800E+00  1.20004800E+00  1.20004800E+00  1.20004800E+00
  1.20004800E+00  1.20004800E+00  1.20004800E+00  1.20004800E+00  1.20004800E+00
  1.20004800E+00  1.20004800E+00  1.20004800E+00  1.20004800E+00  1.20004800E+00
  1.20004800E+00  1.20004800E+00  1.20004800E+00  1.20004800E+00  1.20004800E+00
  1.20004800E+00  1.20004800E+00  1.20004800E+00  1.20004800E+00  1.20004800E+00
  1.20004800E+00  1.20004800E+00  1.20004800E+00  1.20004800E+00  1.20004800E+00
  1.20004800E+00  1.20004800E+00  1.20004800E+00  1.20004800E+00  1.20004800E+00
  1.20004800E+00  1.20004800E+00  1.20004800E+00  1.20004800E+00  1.20004800E+00
  1.20004800E+00  1.20004800E+00  1.20004800E+00  1.20004800E+00  1.20004800E+00
  1.20004800E+00  1.20004800E+00  1.20004800E+00  1.20004800E+00  1.20004800E+00
  1.20004800E+00  1.20004800E+00  1.20004800E+00  1.20004800E+00  1.20004800E+00
  1.20004800E+00  1.20004800E+00  1.20004800E+00  1.20004800E+00  1.20004800E+00
  1.20004800E+00  1.20004800E+00  1.20004800E+00  1.20004800E+00  1.20004800E+00
  1.20004800E+00  1.20004800E+00  1.20004800E+00  1.20004800E+00  1.20004800E+00
  1.20004800E+00  1.20004800E+00  1.20004800E+00  1.20004800E+00  1.20004800E+00
  1.20004800E+00  1.20004800E+00  1.20004800E+00  1.20004800E+00  1.20004800E+00
  1.20004800E+00  1.20004800E+00  1.20004800E+00  1.20004800E+00  1.20004800E+00
  1.20004800E+00  1.20004800E+00  1.20004800E+00  1.20004800E+00  1.20004800E+00
  1.20004800E+00  1.20004800E+00  1.20004800E+00  1.20004800E+00  1.20004800E+00
  1.20004800E+00  1.20004800E+00  1.20004800E+00  1.20004800E+00  1.20004800E+00
  1.20004800E+00  1.20004800E+00  1.20004800E+00  1.20004800E+00  1.20004800E+00
  1.20004800E+00  1.20004800E+00  1.20004800E+00  1.20004800E+00  1.20004800E+00
  1.20004800E+00  1.20004800E+00  1.20004800E+00  1.20004800E+00  1.20004800E+00
  1.20004800E+00  1.20004800E+00  1.20004800E+00  1.20004800E+00  1.20004800E+00
  1.20004800E+00  1.20004800E+00  1.20004800E+00  1.20004800E+00  1.20004800E+00
  1.20004800E+00  1.20004800E+00  1.20004800E+00  1.20004800E+00  1.20004800E+00
  1.20004800E+00  1.20004800E+00  1.20004800E+00  1.20004800E+00  1.20004800E+00
  1.20004800E+00  1.20004800E+00  1.20004800E+00  1.20004800E+00  1.20004800E+00
  1.20004800E+00  1.20004800E+00  1.20004800E+00  1.20004800E+00  1.20004800E+00
  1.20004800E+00  1.20004800E+00  1.20004800E+00  1.20004800E+00  1.20004800E+00
  1.20004800E+00  1.20004800E+00  1.20004800E+00  1.20004800E+00  1.20004800E+00
  1.20004800E+00  1.20004800E+00  1.20004800E+00  1.20004800E+00  1.20004800E+00
  1.20004800E+00  1.20004800E+00  1.20004800E+00  1.20004800E+00  1.20004800E+00
  1.20004800E+00  1.20004800E+00  1.20004800E+00  1.20004800E+00  1.20004800E+00
  1.20004800E+00  1.20004800E+00  1.20004800E+00  1.20004800E+00  1.20004800E+00
  1.20004800E+00  1.20004800E+00  1.20004800E+00  1.20004800E+00  1.20004800E+00
  1.20004800E+00  1.20004800E+00  1.20004800E+00  1.20004800E+00  1.20004800E+00
  1.20004800E+00  1.20004800E+00  1.20004800E+00  1.20004800E+00  1.20004800E+00
  1.20004800E+00  1.20004800E+00  1.20004800E+00  1.20004800E+00  1.20004800E+00
  1.20004800E+00  1.20004800E+00  1.20004800E+00  1.20004800E+00  1.20004800E+00
  1.20004800E+00  1.20004800E+00  1.20004800E+00  1.20004800E+00  1.20004800E+00
  1.20004800E+00  1.20004800E+00  1.20004800E+00  1.20004800E+00  1.20004800E+00
  1.20004800E+00  1.20004800E+00  1.20004800E+00  1.20004800E+00  1.20004800E+00
  1.20004800E+00  1.20004800E+00  1.20004800E+00  1.20004800E+00  1.20004800E+00
  1.20004800E+00  1.20004800E+00  1.20004800E+00  1.20004800E+00  1.20004800E+00
  1.20004800E+00  1.20004800E+00  1.20004800E+00  1.20004800E+00  1.20004800E+00
  1.20004800E+00  1.20004800E+00  1.20004800E+00  1.20004800E+00  1.20004800E+00
  1.20004800E+00  1.20004800E+00  1.20004800E+00  1.20004800E+00  1.20004800E+00
  1.20004800E+00  1.20004800E+00  1.20004800E+00  1.20004800E+00  1.20004800E+00
  1.20004800E+00  1.20004800E+00  1.20004800E+00
%FLAG SCNB_SCALE_FACTOR
%FORMAT(5E16.8)
  2.00000000E+00  2.00000000E+00  2.00000000E+00  2.00000000E+00  2.00000000E+00
  2.00000000E+00  2.00000000E+00  2.00000000E+00  2.00000000E+00  2.00000000E+00
  2.00000000E+00  2.00000000E+00  2.00000000E+00  2.00000000E+00  2.00000000E+00
  2.00000000E+00  2.00000000E+00  2.00000000E+00  2.00000000E+00  2.00000000E+00
  2.00000000E+00  2.00000000E+00  2.00000000E+00  2.00000000E+00  2.00000000E+00
  2.00000000E+00  2.00000000E+00  2.00000000E+00  2.00000000E+00  2.00000000E+00
  2.00000000E+00  2.00000000E+00  2.00000000E+00  2.00000000E+00  2.00000000E+00
  2.00000000E+00  2.00000000E+00  2.00000000E+00  2.00000000E+00  2.00000000E+00
  2.00000000E+00  2.00000000E+00  2.00000000E+00  2.00000000E+00  2.00000000E+00
  2.00000000E+00  2.00000000E+00  2.00000000E+00  2.00000000E+00  2.00000000E+00
  2.00000000E+00  2.00000000E+00  2.00000000E+00  2.00000000E+00  2.00000000E+00
  2.00000000E+00  2.00000000E+00  2.00000000E+00  2.00000000E+00  2.00000000E+00
  2.00000000E+00  2.00000000E+00  2.00000000E+00  2.00000000E+00  2.00000000E+00
  2.00000000E+00  2.00000000E+00  2.00000000E+00  2.00000000E+00  2.00000000E+00
  2.00000000E+00  2.00000000E+00  2.00000000E+00  2.00000000E+00  2.00000000E+00
  2.00000000E+00  2.00000000E+00  2.00000000E+00  2.00000000E+00  2.00000000E+00
  2.00000000E+00  2.00000000E+00  2.00000000E+00  2.00000000E+00  2.00000000E+00
  2.00000000E+00  2.00000000E+00  2.00000000E+00  2.00000000E+00  2.00000000E+00
  2.00000000E+00  2.00000000E+00  2.00000000E+00  2.00000000E+00  2.00000000E+00
  2.00000000E+00  2.00000000E+00  2.00000000E+00  2.00000000E+00  2.00000000E+00
  2.00000000E+00  2.00000000E+00  2.00000000E+00  2.00000000E+00  2.00000000E+00
  2.00000000E+00  2.00000000E+00  2.00000000E+00  2.00000000E+00  2.00000000E+00
  2.00000000E+00  2.00000000E+00  2.00000000E+00  2.00000000E+00  2.00000000E+00
  2.00000000E+00  2.00000000E+00  2.00000000E+00  2.00000000E+00  2.00000000E+00
  2.00000000E+00  2.00000000E+00  2.00000000E+00  2.00000000E+00  2.00000000E+00
  2.00000000E+00  2.00000000E+00  2.00000000E+00  2.00000000E+00  2.00000000E+00
  2.00000000E+00  2.00000000E+00  2.00000000E+00  2.00000000E+00  2.00000000E+00
  2.00000000E+00  2.00000000E+00  2.00000000E+00  2.00000000E+00  2.00000000E+00
  2.00000000E+00  2.00000000E+00  2.00000000E+00  2.00000000E+00  2.00000000E+00
  2.00000000E+00  2.00000000E+00  2.00000000E+00  2.00000000E+00  2.00000000E+00
  2.00000000E+00  2.00000000E+00  2.00000000E+00  2.00000000E+00  2.00000000E+00
  2.00000000E+00  2.00000000E+00  2.00000000E+00  2.00000000E+00  2.00000000E+00
  2.00000000E+00  2.00000000E+00  2.00000000E+00  2.00000000E+00  2.00000000E+00
  2.00000000E+00  2.00000000E+00  2.00000000E+00  2.00000000E+00  2.00000000E+00
  2.00000000E+00  2.00000000E+00  2.00000000E+00  2.00000000E+00  2.00000000E+00
  2.00000000E+00  2.00000000E+00  2.00000000E+00  2.00000000E+00  2.00000000E+00
  2.00000000E+00  2.00000000E+00  2.00000000E+00  2.00000000E+00  2.00000000E+00
  2.00000000E+00  2.00000000E+00  2.00000000E+00  2.00000000E+00  2.00000000E+00
  2.00000000E+00  2.00000000E+00  2.00000000E+00  2.00000000E+00  2.00000000E+00
  2.00000000E+00  2.00000000E+00  2.00000000E+00  2.00000000E+00  2.00000000E+00
  2.00000000E+00  2.00000000E+00  2.00000000E+00  2.00000000E+00  2.00000000E+00
  2.00000000E+00  2.00000000E+00  2.00000000E+00  2.00000000E+00  2.00000000E+00
  2.00000000E+00  2.00000000E+00  2.00000000E+00  2.00000000E+00  2.00000000E+00
  2.00000000E+00  2.00000000E+00  2.00000000E+00  2.00000000E+00  2.00000000E+00
  2.00000000E+00  2.00000000E+00  2.00000000E+00  2.00000000E+00  2.00000000E+00
  2.00000000E+00  2.00000000E+00  2.00000000E+00  2.00000000E+00  2.00000000E+00
  2.00000000E+00  2.00000000E+00  2.00000000E+00  2.00000000E+00  2.00000000E+00
  2.00000000E+00  2.00000000E+00  2.00000000E+00  2.00000000E+00  2.00000000E+00
  2.00000000E+00  2.00000000E+00  2.00000000E+00  2.00000000E+00  2.00000000E+00
  2.00000000E+00  2.00000000E+00  2.00000000E+00  2.00000000E+00  2.00000000E+00
  2.00000000E+00  2.00000000E+00  2.00000000E+00  2.00000000E+00  2.00000000E+00
  2.00000000E+00  2.00000000E+00  2.00000000E+00  2.00000000E+00  2.00000000E+00
  2.00000000E+00  2.00000000E+00  2.00000000E+00  2.00000000E+00  2.00000000E+00
  2.00000000E+00  2.00000000E+00  2.00000000E+00  2.00000000E+00  2.00000000E+00
  2.00000000E+00  2.00000000E+00  2.00000000E+00  2.00000000E+00  2.00000000E+00
  2.00000000E+00  2.00000000E+00  2.00000000E+00  2.00000000E+00  2.00000000E+00
  2.00000000E+00  2.00000000E+00  2.00000000E+00  2.00000000E+00  2.00000000E+00
  2.00000000E+00  2.00000000E+00  2.00000000E+00  2.00000000E+00  2.00000000E+00
  2.00000000E+00  2.00000000E+00  2.00000000E+00  2.00000000E+00  2.00000000E+00
  2.00000000E+00  2.00000000E+00  2.00000000E+00  2.00000000E+00  2.00000000E+00
  2.00000000E+00  2.00000000E+00  2.00000000E+00  2.00000000E+00  2.00000000E+00
  2.00000000E+00  2.00000000E+00  2.00000000E+00  2.00000000E+00  2.00000000E+00
  2.00000000E+00  2.00000000E+00  2.00000000E+00  2.00000000E+00  2.00000000E+00
  2.00000000E+00  2.00000000E+00  2.00000000E+00  2.00000000E+00  2.00000000E+00
  2.00000000E+00  2.00000000E+00  2.00000000E+00  2.00000000E+00  2.00000000E+00
  2.00000000E+00  2.00000000E+00  2.00000000E+00  2.00000000E+00  2.00000000E+00
  2.00000000E+00  2.00000000E+00  2.00000000E+00  2.00000000E+00  2.00000000E+00
  2.00000000E+00  2.00000000E+00  2.00000000E+00  2.00000000E+00  2.00000000E+00
  2.00000000E+00  2.00000000E+00  2.00000000E+00  2.00000000E+00  2.00000000E+00
  2.00000000E+00  2.00000000E+00  2.00000000E+00  2.00000000E+00  2.00000000E+00
  2.00000000E+00  2.00000000E+00  2.00000000E+00  2.00000000E+00  2.00000000E+00
  2.00000000E+00  2.00000000E+00  2.00000000E+00  2.00000000E+00  2.00000000E+00
  2.00000000E+00  2.00000000E+00  2.00000000E+00  2.00000000E+00  2.00000000E+00
  2.00000000E+00  2.00000000E+00  2.00000000E+00
%FLAG SOLTY
%FORMAT(5E16.8)
  0.00000000E+00
%FLAG LENNARD_JONES_ACOEF
%FORMAT(5E16.8)
  9.44298380E+05  2.12602962E+03  1.39985194E-01  9.95484436E+05  2.56679645E+03
  1.04308295E+06  2.01793421E+04  9.14732706E+00  2.27402838E+04  2.01827026E+02
  6.20663956E+04  5.94664265E+01  6.78768123E+04  8.79040353E+02  3.25964807E+03
  7.44973328E+05  1.40466301E+03  7.91540428E+05  1.45985337E+04  4.66916113E+04
  5.81795780E+05  0.00000000E+00  0.00000000E+00  0.00000000E+00  0.00000000E+00
  0.00000000E+00  0.00000000E+00  0.00000000E+00  8.82622205E+05  2.27578801E+03
  9.24824278E+05  2.01621228E+04  6.01813344E+04  7.01800181E+05  0.00000000E+00
  8.19973085E+05  6.06828844E+05  1.02595125E+03  6.47840291E+05  1.12780710E+04
  3.69467493E+04  4.70998433E+05  0.00000000E+00  5.74391930E+05  3.79873471E+05
  9.44298380E+05  2.12602962E+03  9.95484436E+05  2.01793421E+04  6.20663956E+04
  7.44973328E+05  0.00000000E+00  8.82622205E+05  6.06828844E+05  9.44298380E+05
  8.96774597E+04  1.07193213E+02  9.71704116E+04  1.41077201E+03  4.98580034E+03
  6.82777934E+04  0.00000000E+00  8.61537959E+04  5.44255582E+04  8.96774597E+04
  7.51598214E+03  6.06828844E+05  1.02595125E+03  6.47840291E+05  1.12780710E+04
  3.69467493E+04  4.70998433E+05  0.00000000E+00  5.74391930E+05  3.79873471E+05
  6.06828844E+05  5.44255582E+04  3.79873471E+05  8.82622205E+05  2.27578801E+03
  9.24824278E+05  2.01621228E+04  6.01813344E+04  7.01800181E+05  0.00000000E+00
  8.19973085E+05  5.74391930E+05  8.82622205E+05  8.61537959E+04  5.74391930E+05
  8.19973085E+05  9.44298380E+05  2.12602962E+03  9.95484436E+05  2.01793421E+04
  6.20663956E+04  7.44973328E+05  0.00000000E+00  8.82622205E+05  6.06828844E+05
  9.44298380E+05  8.96774597E+04  6.06828844E+05  8.82622205E+05  9.44298380E+05
  8.82622205E+05  2.27578801E+03  9.24824278E+05  2.01621228E+04  6.01813344E+04
  7.01800181E+05  0.00000000E+00  8.19973085E+05  5.74391930E+05  8.82622205E+05
  8.61537959E+04  5.74391930E+05  8.19973085E+05  8.82622205E+05  8.19973085E+05
  5.46145821E+04  4.90237952E+01  5.98883162E+04  7.50063314E+02  2.82095212E+03
  4.09422209E+04  0.00000000E+00  5.30985275E+04  3.23280303E+04  5.46145821E+04
  4.33319814E+03  3.23280303E+04  5.30985275E+04  5.46145821E+04  5.30985275E+04
  2.43825342E+03  9.44298380E+05  2.12602962E+03  9.95484436E+05  2.01793421E+04
  6.20663956E+04  7.44973328E+05  0.00000000E+00  8.82622205E+05  6.06828844E+05
  9.44298380E+05  8.96774597E+04  6.06828844E+05  8.82622205E+05  9.44298380E+05
  8.82622205E+05  5.46145821E+04  9.44298380E+05  8.82622205E+05  2.27578801E+03
  9.24824278E+05  2.01621228E+04  6.01813344E+04  7.01800181E+05  0.00000000E+00
  8.19973085E+05  5.74391930E+05  8.82622205E+05  8.61537959E+04  5.74391930E+05
  8.19973085E+05  8.82622205E+05  8.19973085E+05  5.30985275E+04  8.82622205E+05
  8.19973085E+05  6.58472345E+04  6.63365939E+01  7.18618329E+04  9.55000639E+02
  3.50296315E+03  4.96701032E+04  0.00000000E+00  6.37145566E+04  3.93686941E+04
  6.58472345E+04  5.34038684E+03  3.93686941E+04  6.37145566E+04  6.58472345E+04
  6.37145566E+04  3.03444091E+03  6.58472345E+04  6.37145566E+04  3.76164453E+03
  9.44298380E+05  2.12602962E+03  9.95484436E+05  2.01793421E+04  6.20663956E+04
  7.44973328E+05  0.00000000E+00  8.82622205E+05  6.06828844E+05  9.44298380E+05
  8.96774597E+04  6.06828844E+05  8.82622205E+05  9.44298380E+05  8.82622205E+05
  5.46145821E+04  9.44298380E+05  8.82622205E+05  6.58472345E+04  9.44298380E+05
  8.82622205E+05  2.27578801E+03  9.24824278E+05  2.01621228E+04  6.01813344E+04
  7.01800181E+05  0.00000000E+00  8.19973085E+05  5.74391930E+05  8.82622205E+05
  8.61537959E+04  5.74391930E+05  8.19973085E+05  8.82622205E+05  8.19973085E+05
  5.30985275E+04  8.82622205E+05  8.19973085E+05  6.37145566E+04  8.82622205E+05
  8.19973085E+05  7.91625558E+04  8.90984823E+01  8.59943994E+04  1.21015026E+03
  4.33319814E+03  6.00742915E+04  0.00000000E+00  7.62448549E+04  4.77903685E+04
  7.91625558E+04  6.55817734E+03  4.77903685E+04  7.62448549E+04  7.91625558E+04
  7.62448549E+04  3.76164453E+03  7.91625558E+04  7.62448549E+04  4.64553649E+03
  7.91625558E+04  7.62448549E+04  5.71623111E+03  2.01560984E+06  5.97855536E+03
  2.09860275E+06  4.93467119E+04  1.42789198E+05  1.61585549E+06  0.00000000E+00
  1.86067538E+06  1.32909396E+06  2.01560984E+06  2.02458854E+05  1.32909396E+06
  1.86067538E+06  2.01560984E+06  1.86067538E+06  1.26336567E+05  2.01560984E+06
  1.86067538E+06  1.50845809E+05  2.01560984E+06  1.86067538E+06  1.79645432E+05
  4.19423518E+06  2.12602962E+03  1.39985194E-01  2.56679645E+03  9.14732706E+00
  5.94664265E+01  1.40466301E+03  0.00000000E+00  2.27578801E+03  1.02595125E+03
  2.12602962E+03  1.07193213E+02  1.02595125E+03  2.27578801E+03  2.12602962E+03
  2.27578801E+03  4.90237952E+01  2.12602962E+03  2.27578801E+03  6.63365939E+01
  2.12602962E+03  2.27578801E+03  8.90984823E+01  5.97855536E+03  1.39985194E-01
  8.82622205E+05  2.27578801E+03  9.24824278E+05  2.01621228E+04  6.01813344E+04
  7.01800181E+05  0.00000000E+00  8.19973085E+05  5.74391930E+05  8.82622205E+05
  8.61537959E+04  5.74391930E+05  8.19973085E+05  8.82622205E+05  8.19973085E+05
  5.30985275E+04  8.82622205E+05  8.19973085E+05  6.37145566E+04  8.82622205E+05
  8.19973085E+05  7.62448549E+04  1.86067538E+06  2.27578801E+03  8.19973085E+05
  2.01560984E+06  5.97855536E+03  2.09860275E+06  4.93467119E+04  1.42789198E+05
  1.61585549E+06  0.00000000E+00  1.86067538E+06  1.32909396E+06  2.01560984E+06
  2.02458854E+05  1.32909396E+06  1.86067538E+06  2.01560984E+06  1.86067538E+06
  1.26336567E+05  2.01560984E+06  1.86067538E+06  1.50845809E+05  2.01560984E+06
  1.86067538E+06  1.79645432E+05  4.19423518E+06  5.97855536E+03  1.86067538E+06
  4.19423518E+06  8.82622205E+05  2.27578801E+03  9.24824278E+05  2.01621228E+04
  6.01813344E+04  7.01800181E+05  0.00000000E+00  8.19973085E+05  5.74391930E+05
  8.82622205E+05  8.61537959E+04  5.74391930E+05  8.19973085E+05  8.82622205E+05
  8.19973085E+05  5.30985275E+04  8.82622205E+05  8.19973085E+05  6.37145566E+04
  8.82622205E+05  8.19973085E+05  7.62448549E+04  1.86067538E+06  2.27578801E+03
  8.19973085E+05  1.86067538E+06  8.19973085E+05  8.82622205E+05  2.27578801E+03
  9.24824278E+05  2.01621228E+04  6.01813344E+04  7.01800181E+05  0.00000000E+00
  8.19973085E+05  5.74391930E+05  8.82622205E+05  8.61537959E+04  5.74391930E+05
  8.19973085E+05  8.82622205E+05  8.19973085E+05  5.30985275E+04  8.82622205E+05
  8.19973085E+05  6.37145566E+04  8.82622205E+05  8.19973085E+05  7.62448549E+04
  1.86067538E+06  2.27578801E+03  8.19973085E+05  1.86067538E+06  8.19973085E+05
  8.19973085E+05  8.82622205E+05  2.27578801E+03  9.24824278E+05  2.01621228E+04
  6.01813344E+04  7.01800181E+05  0.00000000E+00  8.19973085E+05  5.74391930E+05
  8.82622205E+05  8.61537959E+04  5.74391930E+05  8.19973085E+05  8.82622205E+05
  8.19973085E+05  5.30985275E+04  8.82622205E+05  8.19973085E+05  6.37145566E+04
  8.82622205E+05  8.19973085E+05  7.62448549E+04  1.86067538E+06  2.27578801E+03
  8.19973085E+05  1.86067538E+06  8.19973085E+05  8.19973085E+05  8.19973085E+05
  5.18223489E+05  1.06723603E+03  5.48480790E+05  1.06014634E+04  3.32550522E+04
  4.06750902E+05  0.00000000E+00  4.86297230E+05  3.30296885E+05  5.18223489E+05
  4.83403895E+04  3.30296885E+05  4.86297230E+05  5.18223489E+05  4.86297230E+05
  2.92108845E+04  5.18223489E+05  4.86297230E+05  3.53289206E+04  5.18223489E+05
  4.86297230E+05  4.26017764E+04  1.11513881E+06  1.06723603E+03  4.86297230E+05
  1.11513881E+06  4.86297230E+05  4.86297230E+05  4.86297230E+05  2.83664575E+05
  5.99898491E+05  1.11044111E+03  6.37913214E+05  1.16505886E+04  3.74145467E+04
  4.68007920E+05  0.00000000E+00  5.65590327E+05  3.78639195E+05  5.99898491E+05
  5.47798920E+04  3.78639195E+05  5.65590327E+05  5.99898491E+05  5.65590327E+05
  3.27955948E+04  5.99898491E+05  5.65590327E+05  3.98124103E+04  5.99898491E+05
  5.65590327E+05  4.81817493E+04  1.30333992E+06  1.11044111E+03  5.65590327E+05
  1.30333992E+06  5.65590327E+05  5.65590327E+05  5.65590327E+05  3.27368156E+05
  3.76434052E+05  8.14788119E+05  1.71844239E+03  8.61451631E+05  1.68636058E+04
  5.26212138E+04  6.40394949E+05  0.00000000E+00  7.63785259E+05  5.20455589E+05
  8.14788119E+05  7.63682195E+04  5.20455589E+05  7.63785259E+05  8.14788119E+05
  7.63785259E+05  4.62436533E+04  8.14788119E+05  7.63785259E+05  5.58824794E+04
  8.14788119E+05  7.63785259E+05  6.73320848E+04  1.74952456E+06  1.71844239E+03
  7.63785259E+05  1.74952456E+06  7.63785259E+05  7.63785259E+05  7.63785259E+05
  4.46304412E+05  5.15486025E+05  7.02065601E+05  9.84687839E+05  2.53457750E+03
  1.03185048E+06  2.24745048E+04  6.71091512E+04  7.82877097E+05  0.00000000E+00
  9.14865279E+05  6.40710685E+05  9.84687839E+05  9.60827919E+04  6.40710685E+05
  9.14865279E+05  9.84687839E+05  9.14865279E+05  5.92089684E+04  9.84687839E+05
  9.14865279E+05  7.10509913E+04  9.84687839E+05  9.14865279E+05  8.50291216E+04
  2.07617298E+06  2.53457750E+03  9.14865279E+05  2.07617298E+06  9.14865279E+05
  9.14865279E+05  9.14865279E+05  5.42504709E+05  6.30924785E+05  8.52077020E+05
  1.02073795E+06  8.11495917E+05  1.94007944E+03  8.53191131E+05  1.78601670E+04
  5.42092956E+04  6.42423852E+05  0.00000000E+00  7.56461287E+05  5.24397710E+05
  8.11495917E+05  7.80057200E+04  5.24397710E+05  7.56461287E+05  8.11495917E+05
  7.56461287E+05  4.77575958E+04  8.11495917E+05  7.56461287E+05  5.74586095E+04
  8.11495917E+05  7.56461287E+05  6.89364421E+04  1.72266411E+06  1.94007944E+03
  7.56461287E+05  1.72266411E+06  7.56461287E+05  7.56461287E+05  7.56461287E+05
  4.46121230E+05  5.17504174E+05  7.01097287E+05  8.43966783E+05  6.96545115E+05
  6.43859099E+04  5.78361199E+01  7.06011164E+04  8.84557827E+02  3.32626540E+03
  4.82692125E+04  0.00000000E+00  6.25967728E+04  3.81143232E+04  6.43859099E+04
  5.10916023E+03  3.81143232E+04  6.25967728E+04  6.43859099E+04  6.25967728E+04
  2.87505363E+03  6.43859099E+04  6.25967728E+04  3.57795847E+03  6.43859099E+04
  6.25967728E+04  4.43531267E+03  1.48931066E+05  5.78361199E+01  6.25967728E+04
  1.48931066E+05  6.25967728E+04  6.25967728E+04  6.25967728E+04  3.44377908E+04
  3.86648249E+04  5.45180713E+04  6.98002733E+04  5.63013798E+04  3.39010377E+03
  9.33226187E+04  1.05105000E+02  1.01373695E+05  1.42706090E+03  5.10916023E+03
  7.08225157E+04  0.00000000E+00  8.98805355E+04  5.63420428E+04  9.33226187E+04
  7.73223945E+03  5.63420428E+04  8.98805355E+04  9.33226187E+04  8.98805355E+04
  4.43531267E+03  9.33226187E+04  8.98805355E+04  5.47737649E+03  9.33226187E+04
  8.98805355E+04  6.73964562E+03  2.11767257E+05  1.05105000E+02  8.98805355E+04
  2.11767257E+05  8.98805355E+04  8.98805355E+04  8.98805355E+04  5.02230018E+04
  5.68024239E+04  7.93770447E+04  1.00235822E+05  8.12663346E+04  5.22962645E+03
  7.94628776E+03
%FLAG LENNARD_JONES_BCOEF
%FORMAT(5E16.8)
  8.01325713E+02  2.09605075E+01  9.37607070E-02  7.36909048E+02  2.06279015E+01
  6.75613424E+02  6.45759258E+01  7.57926210E-01  6.13984312E+01  3.56015972E+00
  1.13251875E+02  1.93248327E+00  1.06076713E+02  7.42992155E+00  1.43075469E+01
  7.50713233E+02  1.79701816E+01  6.93078545E+02  5.79323320E+01  1.03606218E+02
  6.99742489E+02  0.00000000E+00  0.00000000E+00  0.00000000E+00  0.00000000E+00
  0.00000000E+00  0.00000000E+00  0.00000000E+00  6.53362589E+02  1.82892301E+01
  5.99016307E+02  5.44374344E+01  9.40503526E+01  6.14501334E+02  0.00000000E+00
  5.31103324E+02  6.77220596E+02  1.53505201E+01  6.26719521E+02  5.08952374E+01
  9.21187103E+01  6.29297540E+02  0.00000000E+00  5.55665709E+02  5.64883807E+02
  8.01325713E+02  2.09605075E+01  7.36909048E+02  6.45759258E+01  1.13251875E+02
  7.50713233E+02  0.00000000E+00  6.53362589E+02  6.77220596E+02  8.01325713E+02
  1.36131549E+02  2.59455850E+00  1.26918916E+02  9.41257043E+00  1.76948654E+01
  1.25287035E+02  0.00000000E+00  1.12529588E+02  1.11804988E+02  1.36131549E+02
  2.17256456E+01  6.77220596E+02  1.53505201E+01  6.26719521E+02  5.08952374E+01
  9.21187103E+01  6.29297540E+02  0.00000000E+00  5.55665709E+02  5.64883807E+02
  6.77220596E+02  1.11804988E+02  5.64883807E+02  6.53362589E+02  1.82892301E+01
  5.99016307E+02  5.44374344E+01  9.40503526E+01  6.14501334E+02  0.00000000E+00
  5.31103324E+02  5.55665709E+02  6.53362589E+02  1.12529588E+02  5.55665709E+02
  5.31103324E+02  8.01325713E+02  2.09605075E+01  7.36909048E+02  6.45759258E+01
  1.13251875E+02  7.50713233E+02  0.00000000E+00  6.53362589E+02  6.77220596E+02
  8.01325713E+02  1.36131549E+02  6.77220596E+02  6.53362589E+02  8.01325713E+02
  6.53362589E+02  1.82892301E+01  5.99016307E+02  5.44374344E+01  9.40503526E+01
  6.14501334E+02  0.00000000E+00  5.31103324E+02  5.55665709E+02  6.53362589E+02
  1.12529588E+02  5.55665709E+02  5.31103324E+02  6.53362589E+02  5.31103324E+02
  1.05031447E+02  1.73472720E+00  9.85095391E+01  6.78541924E+00  1.31590816E+01
  9.59179730E+01  0.00000000E+00  8.73411009E+01  8.51916944E+01  1.05031447E+02
  1.63091752E+01  8.51916944E+01  8.73411009E+01  1.05031447E+02  8.73411009E+01
  1.20952555E+01  8.01325713E+02  2.09605075E+01  7.36909048E+02  6.45759258E+01
  1.13251875E+02  7.50713233E+02  0.00000000E+00  6.53362589E+02  6.77220596E+02
  8.01325713E+02  1.36131549E+02  6.77220596E+02  6.53362589E+02  8.01325713E+02
  6.53362589E+02  1.05031447E+02  8.01325713E+02  6.53362589E+02  1.82892301E+01
  5.99016307E+02  5.44374344E+01  9.40503526E+01  6.14501334E+02  0.00000000E+00
  5.31103324E+02  5.55665709E+02  6.53362589E+02  1.12529588E+02  5.55665709E+02
  5.31103324E+02  6.53362589E+02  5.31103324E+02  8.73411009E+01  6.53362589E+02
  5.31103324E+02  1.15327748E+02  2.01792169E+00  1.07908680E+02  7.65648709E+00
  1.46637655E+01  1.05648133E+02  0.00000000E+00  9.56746222E+01  9.40119668E+01
  1.15327748E+02  1.81056484E+01  9.40119668E+01  9.56746222E+01  1.15327748E+02
  9.56746222E+01  1.34932003E+01  1.15327748E+02  9.56746222E+01  1.50232710E+01
  8.01325713E+02  2.09605075E+01  7.36909048E+02  6.45759258E+01  1.13251875E+02
  7.50713233E+02  0.00000000E+00  6.53362589E+02  6.77220596E+02  8.01325713E+02
  1.36131549E+02  6.77220596E+02  6.53362589E+02  8.01325713E+02  6.53362589E+02
  1.05031447E+02  8.01325713E+02  6.53362589E+02  1.15327748E+02  8.01325713E+02
  6.53362589E+02  1.82892301E+01  5.99016307E+02  5.44374344E+01  9.40503526E+01
  6.14501334E+02  0.00000000E+00  5.31103324E+02  5.55665709E+02  6.53362589E+02
  1.12529588E+02  5.55665709E+02  5.31103324E+02  6.53362589E+02  5.31103324E+02
  8.73411009E+01  6.53362589E+02  5.31103324E+02  9.56746222E+01  6.53362589E+02
  5.31103324E+02  1.26451779E+02  2.33863732E+00  1.18043566E+02  8.61881131E+00
  1.63091752E+01  1.16187290E+02  0.00000000E+00  1.04660473E+02  1.03580457E+02
  1.26451779E+02  2.00640823E+01  1.03580457E+02  1.04660473E+02  1.26451779E+02
  1.04660473E+02  1.50232710E+01  1.26451779E+02  1.04660473E+02  1.66952745E+01
  1.26451779E+02  1.04660473E+02  1.85195536E+01  1.28923018E+03  3.87068686E+01
  1.17824211E+03  1.11203645E+02  1.89163608E+02  1.21752459E+03  0.00000000E+00
  1.04465988E+03  1.10369141E+03  1.28923018E+03  2.25246628E+02  1.10369141E+03
  1.04465988E+03  1.28923018E+03  1.04465988E+03  1.75914788E+02  1.28923018E+03
  1.04465988E+03  1.92222595E+02  1.28923018E+03  1.04465988E+03  2.09771219E+02
  2.04798320E+03  2.09605075E+01  9.37607070E-02  2.06279015E+01  7.57926210E-01
  1.93248327E+00  1.79701816E+01  0.00000000E+00  1.82892301E+01  1.53505201E+01
  2.09605075E+01  2.59455850E+00  1.53505201E+01  1.82892301E+01  2.09605075E+01
  1.82892301E+01  1.73472720E+00  2.09605075E+01  1.82892301E+01  2.01792169E+00
  2.09605075E+01  1.82892301E+01  2.33863732E+00  3.87068686E+01  9.37607070E-02
  6.53362589E+02  1.82892301E+01  5.99016307E+02  5.44374344E+01  9.40503526E+01
  6.14501334E+02  0.00000000E+00  5.31103324E+02  5.55665709E+02  6.53362589E+02
  1.12529588E+02  5.55665709E+02  5.31103324E+02  6.53362589E+02  5.31103324E+02
  8.73411009E+01  6.53362589E+02  5.31103324E+02  9.56746222E+01  6.53362589E+02
  5.31103324E+02  1.04660473E+02  1.04465988E+03  1.82892301E+01  5.31103324E+02
  1.28923018E+03  3.87068686E+01  1.17824211E+03  1.11203645E+02  1.89163608E+02
  1.21752459E+03  0.00000000E+00  1.04465988E+03  1.10369141E+03  1.28923018E+03
  2.25246628E+02  1.10369141E+03  1.04465988E+03  1.28923018E+03  1.04465988E+03
  1.75914788E+02  1.28923018E+03  1.04465988E+03  1.92222595E+02  1.28923018E+03
  1.04465988E+03  2.09771219E+02  2.04798320E+03  3.87068686E+01  1.04465988E+03
  2.04798320E+03  6.53362589E+02  1.82892301E+01  5.99016307E+02  5.44374344E+01
  9.40503526E+01  6.14501334E+02  0.00000000E+00  5.31103324E+02  5.55665709E+02
  6.53362589E+02  1.12529588E+02  5.55665709E+02  5.31103324E+02  6.53362589E+02
  5.31103324E+02  8.73411009E+01  6.53362589E+02  5.31103324E+02  9.56746222E+01
  6.53362589E+02  5.31103324E+02  1.04660473E+02  1.04465988E+03  1.82892301E+01
  5.31103324E+02  1.04465988E+03  5.31103324E+02  6.53362589E+02  1.82892301E+01
  5.99016307E+02  5.44374344E+01  9.40503526E+01  6.14501334E+02  0.00000000E+00
  5.31103324E+02  5.55665709E+02  6.53362589E+02  1.12529588E+02  5.55665709E+02
  5.31103324E+02  6.53362589E+02  5.31103324E+02  8.73411009E+01  6.53362589E+02
  5.31103324E+02  9.56746222E+01  6.53362589E+02  5.31103324E+02  1.04660473E+02
  1.04465988E+03  1.82892301E+01  5.31103324E+02  1.04465988E+03  5.31103324E+02
  5.31103324E+02  6.53362589E+02  1.82892301E+01  5.99016307E+02  5.44374344E+01
  9.40503526E+01  6.14501334E+02  0.00000000E+00  5.31103324E+02  5.55665709E+02
  6.53362589E+02  1.12529588E+02  5.55665709E+02  5.31103324E+02  6.53362589E+02
  5.31103324E+02  8.73411009E+01  6.53362589E+02  5.31103324E+02  9.56746222E+01
  6.53362589E+02  5.31103324E+02  1.04660473E+02  1.04465988E+03  1.82892301E+01
  5.31103324E+02  1.04465988E+03  5.31103324E+02  5.31103324E+02  5.31103324E+02
  4.79882359E+02  1.20051934E+01  4.42180049E+02  3.78374473E+01  6.70143389E+01
  4.48424934E+02  0.00000000E+00  3.92048249E+02  4.03897412E+02  4.79882359E+02
  8.07967689E+01  4.03897412E+02  3.92048249E+02  4.79882359E+02  3.92048249E+02
  6.20953639E+01  4.79882359E+02  3.92048249E+02  6.82891972E+01  4.79882359E+02
  3.92048249E+02  7.49895378E+01  7.75199484E+02  1.20051934E+01  3.92048249E+02
  7.75199484E+02  3.92048249E+02  3.92048249E+02  3.92048249E+02  2.87012341E+02
  6.15165763E+02  1.45902832E+01  5.68167341E+02  4.72595833E+01  8.46907929E+01
  5.73098308E+02  0.00000000E+00  5.03751835E+02  5.15238906E+02  6.15165763E+02
  1.02477033E+02  5.15238906E+02  5.03751835E+02  6.15165763E+02  5.03751835E+02
  7.83919761E+01  6.15165763E+02  5.03751835E+02  8.63720230E+01  6.15165763E+02
  5.03751835E+02  9.50178367E+01  9.98515688E+02  1.45902832E+01  5.03751835E+02
  9.98515688E+02  5.03751835E+02  5.03751835E+02  5.03751835E+02  3.67361187E+02
  4.69349694E+02  7.37242446E+02  1.86645773E+01  6.78962254E+02  5.84690302E+01
  1.03283537E+02  6.89383983E+02  0.00000000E+00  6.01985466E+02  6.21187087E+02
  7.37242446E+02  1.24424815E+02  6.21187087E+02  6.01985466E+02  7.37242446E+02
  6.01985466E+02  9.57248380E+01  7.37242446E+02  6.01985466E+02  1.05229233E+02
  7.37242446E+02  6.01985466E+02  1.15507345E+02  1.18965431E+03  1.86645773E+01
  6.01985466E+02  1.18965431E+03  6.01985466E+02  6.01985466E+02  6.01985466E+02
  4.41088118E+02  5.64800732E+02  6.77813736E+02  7.30207275E+02  2.04226615E+01
  6.69495170E+02  6.08141465E+01  1.05087346E+02  6.86740903E+02  0.00000000E+00
  5.93591705E+02  6.20969751E+02  7.30207275E+02  1.25742577E+02  6.20969751E+02
  5.93591705E+02  7.30207275E+02  5.93591705E+02  9.75890746E+01  7.30207275E+02
  5.93591705E+02  1.06903647E+02  7.30207275E+02  5.93591705E+02  1.16947596E+02
  1.16761968E+03  2.04226615E+01  5.93591705E+02  1.16761968E+03  5.93591705E+02
  5.93591705E+02  5.93591705E+02  4.38147569E+02  5.62968996E+02  6.72774970E+02
  6.63431992E+02  6.48596468E+02  1.74825125E+01  5.95657714E+02  5.30440713E+01
  9.24125543E+01  6.08683447E+02  0.00000000E+00  5.28125510E+02  5.49672989E+02
  6.48596468E+02  1.10855518E+02  5.49672989E+02  5.28125510E+02  6.48596468E+02
  5.28125510E+02  8.57557445E+01  6.48596468E+02  5.28125510E+02  9.40631569E+01
  6.48596468E+02  5.28125510E+02  1.03030647E+02  1.04064951E+03  1.74825125E+01
  5.28125510E+02  1.04064951E+03  5.28125510E+02  5.28125510E+02  5.28125510E+02
  3.88758266E+02  4.98869731E+02  5.97109642E+02  5.90250683E+02  5.24666081E+02
  1.23752357E+02  2.04465631E+00  1.16066273E+02  7.99620385E+00  1.55059790E+01
  1.13016647E+02  0.00000000E+00  1.02907355E+02  1.00379438E+02  1.23752357E+02
  1.92174387E+01  1.00379438E+02  1.02907355E+02  1.23752357E+02  1.02907355E+02
  1.42525187E+01  1.23752357E+02  1.02907355E+02  1.58996034E+01  1.23752357E+02
  1.02907355E+02  1.77023435E+01  2.07263812E+02  2.04465631E+00  1.02907355E+02
  2.07263812E+02  1.02907355E+02  1.02907355E+02  1.02907355E+02  7.31640071E+01
  9.23665876E+01  1.12787724E+02  1.14981781E+02  1.01040278E+02  1.67945418E+01
  1.48988078E+02  2.75633773E+00  1.39079427E+02  1.01564514E+01  1.92174387E+01
  1.36896702E+02  0.00000000E+00  1.23311411E+02  1.22044145E+02  1.48988078E+02
  2.36414108E+01  1.22044145E+02  1.23311411E+02  1.48988078E+02  1.23311411E+02
  1.77023435E+01  1.48988078E+02  1.23311411E+02  1.96722910E+01  1.48988078E+02
  1.23311411E+02  2.18216294E+01  2.47149785E+02  2.75633773E+00  1.23311411E+02
  2.47149785E+02  1.23311411E+02  1.23311411E+02  1.23311411E+02  8.83550089E+01
  1.11954179E+02  1.36094023E+02  1.37788175E+02  1.21392079E+02  2.08591688E+01
  2.57124705E+01
%FLAG BONDS_INC_HYDROGEN
%FORMAT(10I8)
      36     135       8      39     138       8      42     141       8      45
     144       8      48     147       8      51     150       8      72     153
       8      72     156       8      72     159       8      75     162       8
      75     165       8      75     168       8      78     171       8      78
     174       8      78     177       8      81     180       9      84     183
       9      84     186       9      84     189       9      87     192       9
      87     195       9      87     198       9      90     201       9      93
     204       9      93     207       9      93     210       9      96     213
       9      96     216       9      96     219       9      99     222       9
     102     225       9     102     228       9     102     231       9     105
     234       9     105     237       9     105     240       9     108     243
       9     111     246       9     111     249       9     111     252       9
     114     255       9     114     258       9     114     261       9     117
     264       9     120     267       9     120     270       9     120     273
       9     123     276       9     123     279       9     123     282       9
     126     285       9     129     288       9     129     291       9     129
     294       9     132     297       9     132     300       9     132     303
       9
%FLAG BONDS_WITHOUT_HYDROGEN
%FORMAT(10I8)
       0      45       1       0      63       2       3      48       1       3
      66       2       6      51       1       6      69       2       9      54
       3      12      57       3      15      60       3      18      63       3
      21      66       3      24      69       3      27      36       4      27
      54       5      27      72       4      30      39       4      30      57
       5      30      75       4      33      42       4      33      60       5
      33      78       4      36      66       6      36      99       7      39
      63       6      39      90       7      42      69       6      42     126
       7      45      54       6      45      81       7      48      60       6
      48     117       7      51      57       6      51     108       7      81
      84       7      81      87       7      90      93       7      90      96
       7      99     102       7      99     105       7     108     111       7
     108     114       7     117     120       7     117     123       7     126
     129       7     126     132       7
%FLAG ANGLES_INC_HYDROGEN
%FORMAT(10I8)
       0      45     144       3       3      48     147       3       6      51
     150       3      27      36     135      10      27      72     153      10
      27      72     156      10      27      72     159      10      30      39
     138      10      30      75     162      10      30      75     165      10
      30      75     168      10      33      42     141      10      33      78
     171      10      33      78     174      10      33      78     177      10
      36      99     222      15      39      90     201      15      42     126
     285      15      45      81     180      15      48     117     264      15
      51     108     243      15      54      45     144      18      57      51
     150      18      60      48     147      18      63      39     138      18
      66      36     135      18      69      42     141      18      81      45
     144      19      81      84     183      15      81      84     186      15
      81      84     189      15      81      87     192      15      81      87
     195      15      81      87     198      15      84      81     180      15
      87      81     180      15      90      39     138      19      90      93
     204      15      90      93     207      15      90      93     210      15
      90      96     213      15      90      96     216      15      90      96
     219      15      93      90     201      15      96      90     201      15
      99      36     135      19      99     102     225      15      99     102
     228      15      99     102     231      15      99     105     234      15
      99     105     237      15      99     105     240      15     102      99
     222      15     105      99     222      15     108      51     150      19
     108     111     246      15     108     111     249      15     108     111
     252      15     108     114     255      15     108     114     258      15
     108     114     261      15     111     108     243      15     114     108
     243      15     117      48     147      19     117     120     267      15
     117     120     270      15     117     120     273      15     117     123
     276      15     117     123     279      15     117     123     282      15
     120     117     264      15     123     117     264      15     126      42
     141      19     126     129     288      15     126     129     291      15
     126     129     294      15     126     132     297      15     126     132
     300      15     126     132     303      15     129     126     285      15
     132     126     285      15     153      72     156      20     153      72
     159      20     156      72     159      20     162      75     165      20
     162      75     168      20     165      75     168      20     171      78
     174      20     171      78     177      20     174      78     177      20
     183      84     186      21     183      84     189      21     186      84
     189      21     192      87     195      21     192      87     198      21
     195      87     198      21     204      93     207      21     204      93
     210      21     207      93     210      21     213      96     216      21
     213      96     219      21     216      96     219      21     225     102
     228      21     225     102     231      21     228     102     231      21
     234     105     237      21     234     105     240      21     237     105
     240      21     246     111     249      21     246     111     252      21
     249     111     252      21     255     114     258      21     255     114
     261      21     258     114     261      21     267     120     270      21
     267     120     273      21     270     120     273      21     276     123
     279      21     276     123     282      21     279     123     282      21
     288     129     291      21     288     129     294      21     291     129
     294      21     297     132     300      21     297     132     303      21
     300     132     303      21
%FLAG ANGLES_WITHOUT_HYDROGEN
%FORMAT(10I8)
       0      45      54       1       0      45      81       2       0      63
      18       4       0      63      39       5       3      48      60       1
       3      48     117       2       3      66      21       4       3      66
      36       5       6      51      57       1       6      51     108       2
       6      69      24       4       6      69      42       5       9      54
      27       6       9      54      45       7      12      57      30       6
      12      57      51       7      15      60      33       6      15      60
      48       7      18      63      39       7      21      66      36       7
      24      69      42       7      27      36      66       8      27      36
      99       9      27      54      45      11      30      39      63       8
      30      39      90       9      30      57      51      11      33      42
      69       8      33      42     126       9      33      60      48      11
      36      27      54      12      36      27      72      13      36      99
     102      14      36      99     105      14      39      30      57      12
      39      30      75      13      39      90      93      14      39      90
      96      14      42      33      60      12      42      33      78      13
      42     126     129      14      42     126     132      14      45       0
      63      16      45      81      84      14      45      81      87      14
      48       3      66      16      48     117     120      14      48     117
     123      14      51       6      69      16      51     108     111      14
      51     108     114      14      54      27      72      12      54      45
      81      17      57      30      75      12      57      51     108      17
      60      33      78      12      60      48     117      17      63      39
      90      17      66      36      99      17      69      42     126      17
      84      81      87      14      93      90      96      14     102      99
     105      14     111     108     114      14     120     117     123      14
     129     126     132      14
%FLAG DIHEDRALS_INC_HYDROGEN
%FORMAT(10I8)
       0      45     -81     180       7       0      45      81     180       8
       0      63      39     138      11       3      48    -117     264      18
       3      48     117     264      19       3      66      36     135      22
       6      51    -108     243      29       6      51     108     243      30
       6      69      42     141      33       9      54     -45     144      39
       9      54      45     144      40      12      57     -51     150      46
      12      57      51     150      47      15      60     -48     147      53
      15      60      48     147      54      18      63     -39     138      59
      18      63      39     138      60      21      66     -36     135      67
      21      66      36     135      68      24      69     -42     141      75
      24      69      42     141      76      27      36      99     222      79
      27      54      45     144      82      30      39      90     201      85
      30      57      51     150      88      33      42     126     285      91
      33      60      48     147      94      36      27     -72     153      98
      36      27     -72     156      99      36      27     -72     159     100
      36      99     102     225     104      36      99     102     228     105
      36      99     102     231     106      36      99     105     234     107
      36      99     105     237     108      36      99     105     240     109
      39      30     -75     162     113      39      30     -75     165     114
      39      30     -75     168     115      39      90      93     204     116
      39      90      93     207     117      39      90      93     210     118
      39      90      96     213     119      39      90      96     216     120
      39      90      96     219     121      42      33     -78     171     125
      42      33     -78     174     126      42      33     -78     177     127
      42     126     129     288     131      42     126     129     291     132
      42     126     129     294     133      42     126     132     297     134
      42     126     132     300     135      42     126     132     303     136
      45      81      84     183     145      45      81      84     186     146
      45      81      84     189     147      45      81      87     192     148
      45      81      87     195     149      45      81      87     198     150
      48     117     120     267     154      48     117     120     270     155
      48     117     120     273     156      48     117     123     276     157
      48     117     123     279     158      48     117     123     282     159
      51     108     111     246     163      51     108     111     249     164
      51     108     111     252     165      51     108     114     255     166
      51     108     114     258     167      51     108     114     261     168
      54      27      36     135     174      54      27      72     153     175
      54      27      72     156     176      54      27      72     159     177
      54      45      81     180     184      57      30      39     138     190
      57      30      75     162     191      57      30      75     165     192
      57      30      75     168     193      57      51     108     243     201
      60      33      42     141     207      60      33      78     171     208
      60      33      78     174     209      60      33      78     177     210
      60      48     117     264     218      63       0      45     144     222
      63      39      90     201     230      66       3      48     147     233
      66      36      99     222     241      69       6      51     150     244
      69      42     126     285     252      72      27     -36     135     254
      75      30     -39     138     256      78      33     -42     141     258
      84      81      45     144     259      84      81      87     192     260
      84      81      87     195     261      84      81      87     198     262
      87      81      45     144     263      87      81      84     183     264
      87      81      84     186     265      87      81      84     189     266
      93      90      39     138     267      93      90      96     213     268
      93      90      96     216     269      93      90      96     219     270
      96      90      39     138     271      96      90      93     204     272
      96      90      93     207     273      96      90      93     210     274
     102      99      36     135     275     102      99     105     234     276
     102      99     105     237     277     102      99     105     240     278
     105      99      36     135     279     105      99     102     225     280
     105      99     102     228     281     105      99     102     231     282
     111     108      51     150     283     111     108     114     255     284
     111     108     114     258     285     111     108     114     261     286
     114     108      51     150     287     114     108     111     246     288
     114     108     111     249     289     114     108     111     252     290
     120     117      48     147     291     120     117     123     276     292
     120     117     123     279     293     120     117     123     282     294
     123     117      48     147     295     123     117     120     267     296
     123     117     120     270     297     123     117     120     273     298
     129     126      42     141     299     129     126     132     297     300
     129     126     132     300     301     129     126     132     303     302
     132     126      42     141     303     132     126     129     288     304
     132     126     129     291     305     132     126     129     294     306
     135      36      99     222     307     138      39      90     201     308
     141      42     126     285     309     144      45      81     180     310
     147      48     117     264     311     150      51     108     243     312
     180      81      84     183     313     180      81      84     186     314
     180      81      84     189     315     180      81      87     192     316
     180      81      87     195     317     180      81      87     198     318
     201      90      93     204     319     201      90      93     207     320
     201      90      93     210     321     201      90      96     213     322
     201      90      96     216     323     201      90      96     219     324
     222      99     102     225     325     222      99     102     228     326
     222      99     102     231     327     222      99     105     234     328
     222      99     105     237     329     222      99     105     240     330
     243     108     111     246     331     243     108     111     249     332
     243     108     111     252     333     243     108     114     255     334
     243     108     114     258     335     243     108     114     261     336
     264     117     120     267     337     264     117     120     270     338
     264     117     120     273     339     264     117     123     276     340
     264     117     123     279     341     264     117     123     282     342
     285     126     129     288     343     285     126     129     291     344
     285     126     129     294     345     285     126     132     297     346
     285     126     132     300     347     285     126     132     303     348
      36      27      72     153     351      36      27      72     156     352
      36      27      72     159     353      39      30      75     162     354
      39      30      75     165     355      39      30      75     168     356
      42      33      78     171     357      42      33      78     174     358
      42      33      78     177     359      72      27      36     135     364
      75      30      39     138     366      78      33      42     141     368
%FLAG DIHEDRALS_WITHOUT_HYDROGEN
%FORMAT(10I8)
       0      45     -54       9       1       0      45     -54       9       2
       0      45      54       9       3       0      45      54      27       4
       0      45      81      84       5       0      45      81      87       6
       0      63      39      30       9       0      63      39      90      10
       3      48     -60      15      12       3      48     -60      15      13
       3      48      60      15      14       3      48      60      33      15
       3      48     117     120      16       3      48     117     123      17
       3      66      36      27      20       3      66      36      99      21
       6      51     -57      12      23       6      51     -57      12      24
       6      51      57      12      25       6      51      57      30      26
       6      51     108     111      27       6      51     108     114      28
       6      69      42      33      31       6      69      42     126      32
       9      54      27      36      34       9      54      27      72      35
       9      54     -45      81      36       9      54     -45      81      37
       9      54      45      81      38      12      57      30      39      41
      12      57      30      75      42      12      57     -51     108      43
      12      57     -51     108      44      12      57      51     108      45
      15      60      33      42      48      15      60      33      78      49
      15      60     -48     117      50      15      60     -48     117      51
      15      60      48     117      52      18      63      39      30      55
      18      63     -39      90      56      18      63     -39      90      57
      18      63      39      90      58      21      66      -3      48      61
      21      66       3      48      62      21      66      36      27      63
      21      66     -36      99      64      21      66     -36      99      65
      21      66      36      99      66      24      69      -6      51      69
      24      69       6      51      70      24      69      42      33      71
      24      69     -42     126      72      24      69     -42     126      73
      24      69      42     126      74      27      36      99     102      77
      27      36      99     105      78      27      54     -45      81      80
      27      54      45      81      81      30      39      90      93      83
      30      39      90      96      84      30      57     -51     108      86
      30      57      51     108      87      33      42     126     129      89
      33      42     126     132      90      33      60     -48     117      92
      33      60      48     117      93      36      27     -54      45      95
      36      27     -54      45      96      36      27      54      45      97
      36      66      -3      48     101      36      66      -3      48     102
      36      66       3      48     103      39      30     -57      51     110
      39      30     -57      51     111      39      30      57      51     112
      42      33     -60      48     122      42      33     -60      48     123
      42      33      60      48     124      42      69      -6      51     128
      42      69      -6      51     129      42      69       6      51     130
      45       0     -63      18     137      45       0      63      18     138
      45       0     -63      39     139      45       0     -63      39     140
      45       0      63      39     141      45      54     -27      72     142
      45      54     -27      72     143      45      54      27      72     144
      48      60     -33      78     151      48      60     -33      78     152
      48      60      33      78     153      51      57     -30      75     160
      51      57     -30      75     161      51      57      30      75     162
      54      27     -36      66     169      54      27      36      66     170
      54      27     -36      99     171      54      27     -36      99     172
      54      27      36      99     173      54      45     -81      84     178
      54      45     -81      84     179      54      45      81      84     180
      54      45     -81      87     181      54      45     -81      87     182
      54      45      81      87     183      57      30     -39      63     185
      57      30      39      63     186      57      30     -39      90     187
      57      30     -39      90     188      57      30      39      90     189
      57      51       6      69     194      57      51    -108     111     195
      57      51    -108     111     196      57      51     108     111     197
      57      51    -108     114     198      57      51    -108     114     199
      57      51     108     114     200      60      33     -42      69     202
      60      33      42      69     203      60      33     -42     126     204
      60      33     -42     126     205      60      33      42     126     206
      60      48       3      66     211      60      48    -117     120     212
      60      48    -117     120     213      60      48     117     120     214
      60      48    -117     123     215      60      48    -117     123     216
      60      48     117     123     217      63       0      45      54     219
      63       0     -45      81     220      63       0      45      81     221
      63      39     -30      75     223      63      39     -90      93     224
      63      39     -90      93     225      63      39      90      93     226
      63      39     -90      96     227      63      39     -90      96     228
      63      39      90      96     229      66       3     -48     117     231
      66       3      48     117     232      66      36     -27      72     234
      66      36     -99     102     235      66      36     -99     102     236
      66      36      99     102     237      66      36     -99     105     238
      66      36     -99     105     239      66      36      99     105     240
      69       6     -51     108     242      69       6      51     108     243
      69      42     -33      78     245      69      42    -126     129     246
      69      42    -126     129     247      69      42     126     129     248
      69      42    -126     132     249      69      42    -126     132     250
      69      42     126     132     251      72      27     -36      99     253
      75      30     -39      90     255      78      33     -42     126     257
       0      63     -18     -39     349      36      21     -66      -3     349
      42      24     -69      -6     349      45      27     -54      -9     350
      48      33     -60     -15     350      51      30     -57     -12     350
      54      36     -27     -72     349      57      39     -30     -75     349
      60      42     -33     -78     349      63      39      30      75     360
      66      36      27      72     361      69      42      33      78     362
      72      27      36      99     363      75      30      39      90     365
      78      33      42     126     367
%FLAG EXCLUDED_ATOMS_LIST
%FORMAT(10I8)
       4       7      10      11      14      16      19      22      28      29
      30      31      47      49      61       6       8      10      12      13
      17      21      23      34      40      41      42      46      50      89
       5       9      11      12      15      18      20      24      37      38
      39      43      48      51      82      10      13      16      19      25
      28      49      11      14      18      20      26      37      51      12
      15      17      21      27      40      50      11      14      16      22
      31      47      10      13      17      23      34      46      12      15
      18      24      43      48      13      16      19      23      25      28
      34      35      36      46      49      52      53      54      75      14
      18      20      22      26      31      32      33      37      47      51
      55      56      57      68      15      17      21      24      27      40
      43      44      45      48      50      58      59      60      96      16
      17      19      23      25      34      35      36      46      52      53
      54      75      76      77      78      79      80      81      16      18
      20      22      26      31      32      33      47      55      56      57
      68      69      70      71      72      73      74      17      18      21
      24      27      43      44      45      48      58      59      60      96
      97      98      99     100     101     102      19      22      25      28
      29      30      49      61      62      63      64      65      66      67
      21      23      27      40      41      42      50      89      90      91
      92      93      94      95      20      24      26      37      38      39
      51      82      83      84      85      86      87      88      22      23
      25      28      29      30      34      46      49      52      53      54
      61      22      24      26      31      37      38      39      47      51
      55      56      57      82      23      24      27      40      41      42
      43      48      50      58      59      60      89      26      28      31
      32      33      47      49      68      25      34      35      36      40
      46      50      75      27      37      43      44      45      48      51
      96      34      46      52      53      54      31      47      55      56
      57      43      48      58      59      60      29      30      49      61
      62      63      64      65      66      67      30      49      61      62
      63      64      65      66      67      49      61      62      63      64
      65      66      67      32      33      47      68      69      70      71
      72      73      74      33      47      68      69      70      71      72
      73      74      47      68      69      70      71      72      73      74
      35      36      46      75      76      77      78      79      80      81
      36      46      75      76      77      78      79      80      81      46
      75      76      77      78      79      80      81      38      39      51
      82      83      84      85      86      87      88      39      51      82
      83      84      85      86      87      88      51      82      83      84
      85      86      87      88      41      42      50      89      90      91
      92      93      94      95      42      50      89      90      91      92
      93      94      95      50      89      90      91      92      93      94
      95      44      45      48      96      97      98      99     100     101
     102      45      48      96      97      98      99     100     101     102
      48      96      97      98      99     100     101     102      75      68
      96      61      89      82      53      54      54       0      56      57
      57       0      59      60      60       0      62      63      64      65
      66      67      63      64      64       0      66      67      67       0
      69      70      71      72      73      74      70      71      71       0
      73      74      74       0      76      77      78      79      80      81
      77      78      78       0      80      81      81       0      83      84
      85      86      87      88      84      85      85       0      87      88
      88       0      90      91      92      93      94      95      91      92
      92       0      94      95      95       0      97      98      99     100
     101     102      98      99      99       0     101     102     102       0
%FLAG HBOND_ACOEF
%FORMAT(5E16.8)

%FLAG HBOND_BCOEF
%FORMAT(5E16.8)

%FLAG HBCUT
%FORMAT(5E16.8)

%FLAG AMBER_ATOM_TYPE
%FORMAT(20a4)
os  os  os  o   o   o   o   o   o   n   n   n   c3  c3  c3  c3  c3  c3  c   c   
c   c   c   c   c3  c3  c3  c3  c3  c3  c3  c3  c3  c3  c3  c3  c3  c3  c3  c3  
c3  c3  c3  c3  c3  h1  h1  h1  h1  h1  h1  h1  h1  h1  h1  h1  h1  h1  h1  h1  
hc  hc  hc  hc  hc  hc  hc  hc  hc  hc  hc  hc  hc  hc  hc  hc  hc  hc  hc  hc  
hc  hc  hc  hc  hc  hc  hc  hc  hc  hc  hc  hc  hc  hc  hc  hc  hc  hc  hc  hc  
hc  hc  
%FLAG TREE_CHAIN_CLASSIFICATION
%FORMAT(20a4)
BLA BLA BLA BLA BLA BLA BLA BLA BLA BLA BLA BLA BLA BLA BLA BLA BLA BLA BLA BLA 
BLA BLA BLA BLA BLA BLA BLA BLA BLA BLA BLA BLA BLA BLA BLA BLA BLA BLA BLA BLA 
BLA BLA BLA BLA BLA BLA BLA BLA BLA BLA BLA BLA BLA BLA BLA BLA BLA BLA BLA BLA 
BLA BLA BLA BLA BLA BLA BLA BLA BLA BLA BLA BLA BLA BLA BLA BLA BLA BLA BLA BLA 
BLA BLA BLA BLA BLA BLA BLA BLA BLA BLA BLA BLA BLA BLA BLA BLA BLA BLA BLA BLA 
BLA BLA 
%FLAG JOIN_ARRAY
%FORMAT(10I8)
       0       0       0       0       0       0       0       0       0       0
       0       0       0       0       0       0       0       0       0       0
       0       0       0       0       0       0       0       0       0       0
       0       0       0       0       0       0       0       0       0       0
       0       0       0       0       0       0       0       0       0       0
       0       0       0       0       0       0       0       0       0       0
       0       0       0       0       0       0       0       0       0       0
       0       0       0       0       0       0       0       0       0       0
       0       0       0       0       0       0       0       0       0       0
       0       0       0       0       0       0       0       0       0       0
       0       0
%FLAG IROTAT
%FORMAT(10I8)
       0       0       0       0       0       0       0       0       0       0
       0       0       0       0       0       0       0       0       0       0
       0       0       0       0       0       0       0       0       0       0
       0       0       0       0       0       0       0       0       0       0
       0       0       0       0       0       0       0       0       0       0
       0       0       0       0       0       0       0       0       0       0
       0       0       0       0       0       0       0       0       0       0
       0       0       0       0       0       0       0       0       0       0
       0       0       0       0       0       0       0       0       0       0
       0       0       0       0       0       0       0       0       0       0
       0       0
%FLAG RADIUS_SET
%FORMAT(1a80)
H(N)-modified Bondi radii (mbondi2)                                             
%FLAG RADII
%FORMAT(5E16.8)
  1.50000000E+00  1.50000000E+00  1.50000000E+00  1.50000000E+00  1.50000000E+00
  1.50000000E+00  1.50000000E+00  1.50000000E+00  1.50000000E+00  1.55000000E+00
  1.55000000E+00  1.55000000E+00  1.70000000E+00  1.70000000E+00  1.70000000E+00
  1.70000000E+00  1.70000000E+00  1.70000000E+00  1.70000000E+00  1.70000000E+00
  1.70000000E+00  1.70000000E+00  1.70000000E+00  1.70000000E+00  1.70000000E+00
  1.70000000E+00  1.70000000E+00  1.70000000E+00  1.70000000E+00  1.70000000E+00
  1.70000000E+00  1.70000000E+00  1.70000000E+00  1.70000000E+00  1.70000000E+00
  1.70000000E+00  1.70000000E+00  1.70000000E+00  1.70000000E+00  1.70000000E+00
  1.70000000E+00  1.70000000E+00  1.70000000E+00  1.70000000E+00  1.70000000E+00
  1.20000000E+00  1.20000000E+00  1.20000000E+00  1.20000000E+00  1.20000000E+00
  1.20000000E+00  1.20000000E+00  1.20000000E+00  1.20000000E+00  1.20000000E+00
  1.20000000E+00  1.20000000E+00  1.20000000E+00  1.20000000E+00  1.20000000E+00
  1.20000000E+00  1.20000000E+00  1.20000000E+00  1.20000000E+00  1.20000000E+00
  1.20000000E+00  1.20000000E+00  1.20000000E+00  1.20000000E+00  1.20000000E+00
  1.20000000E+00  1.20000000E+00  1.20000000E+00  1.20000000E+00  1.20000000E+00
  1.20000000E+00  1.20000000E+00  1.20000000E+00  1.20000000E+00  1.20000000E+00
  1.20000000E+00  1.20000000E+00  1.20000000E+00  1.20000000E+00  1.20000000E+00
  1.20000000E+00  1.20000000E+00  1.20000000E+00  1.20000000E+00  1.20000000E+00
  1.20000000E+00  1.20000000E+00  1.20000000E+00  1.20000000E+00  1.20000000E+00
  1.20000000E+00  1.20000000E+00  1.20000000E+00  1.20000000E+00  1.20000000E+00
  1.20000000E+00  1.20000000E+00
%FLAG SCREEN
%FORMAT(5E16.8)
  8.50000000E-01  8.50000000E-01  8.50000000E-01  8.50000000E-01  8.50000000E-01
  8.50000000E-01  8.50000000E-01  8.50000000E-01  8.50000000E-01  7.90000000E-01
  7.90000000E-01  7.90000000E-01  7.20000000E-01  7.20000000E-01  7.20000000E-01
  7.20000000E-01  7.20000000E-01  7.20000000E-01  7.20000000E-01  7.20000000E-01
  7.20000000E-01  7.20000000E-01  7.20000000E-01  7.20000000E-01  7.20000000E-01
  7.20000000E-01  7.20000000E-01  7.20000000E-01  7.20000000E-01  7.20000000E-01
  7.20000000E-01  7.20000000E-01  7.20000000E-01  7.20000000E-01  7.20000000E-01
  7.20000000E-01  7.20000000E-01  7.20000000E-01  7.20000000E-01  7.20000000E-01
  7.20000000E-01  7.20000000E-01  7.20000000E-01  7.20000000E-01  7.20000000E-01
  8.50000000E-01  8.50000000E-01  8.50000000E-01  8.50000000E-01  8.50000000E-01
  8.50000000E-01  8.50000000E-01  8.50000000E-01  8.50000000E-01  8.50000000E-01
  8.50000000E-01  8.50000000E-01  8.50000000E-01  8.50000000E-01  8.50000000E-01
  8.50000000E-01  8.50000000E-01  8.50000000E-01  8.50000000E-01  8.50000000E-01
  8.50000000E-01  8.50000000E-01  8.50000000E-01  8.50000000E-01  8.50000000E-01
  8.50000000E-01  8.50000000E-01  8.50000000E-01  8.50000000E-01  8.50000000E-01
  8.50000000E-01  8.50000000E-01  8.50000000E-01  8.50000000E-01  8.50000000E-01
  8.50000000E-01  8.50000000E-01  8.50000000E-01  8.50000000E-01  8.50000000E-01
  8.50000000E-01  8.50000000E-01  8.50000000E-01  8.50000000E-01  8.50000000E-01
  8.50000000E-01  8.50000000E-01  8.50000000E-01  8.50000000E-01  8.50000000E-01
  8.50000000E-01  8.50000000E-01  8.50000000E-01  8.50000000E-01  8.50000000E-01
  8.50000000E-01  8.50000000E-01
%FLAG IPOL
%FORMAT(1I8)
       0
