ENB-Site2_1h.pdb
   102
   5.8830000   6.5070000 -24.2400000  10.9570000   6.4700000 -25.2540000
   9.0230000  10.6820000 -24.3210000   8.1400000   6.6780000 -22.9770000
   6.8790000   9.2790000 -22.4170000  12.7660000   9.1480000 -25.0000000
   6.6490000   7.5950000 -26.1230000  12.3670000   6.6560000 -23.4430000
   9.6800000  12.8400000 -24.7490000   9.2130000   4.9240000 -24.0360000
   6.1230000   9.8860000 -24.5250000  10.7390000   9.5740000 -26.0600000
  10.4520000   5.1990000 -23.2800000   5.1890000   8.7410000 -24.5490000
  10.8450000  11.0330000 -25.8530000   6.7740000   5.3930000 -24.4640000
  11.7550000   7.2850000 -26.1290000   7.9960000  11.1400000 -23.4210000
   8.0950000   5.7260000 -23.7650000   6.9550000  10.0230000 -23.3990000
  11.8060000   8.7480000 -25.6660000   5.9870000   7.5680000 -25.0940000
  11.3640000   6.2020000 -23.9840000   9.7850000  11.6320000 -24.9310000
   9.2470000   3.8580000 -25.0420000   6.1430000  10.7770000 -25.6890000
   9.5970000   9.0820000 -26.8340000   6.1230000   4.1730000 -23.8300000
   4.7540000   4.5310000 -23.2530000   5.9940000   3.0390000 -24.8460000
   3.9160000   8.9340000 -25.3630000   4.0810000   8.3520000 -26.7650000
   2.7230000   8.2960000 -24.6550000  11.2470000   3.9440000 -22.9210000
  11.6320000   3.9540000 -21.4420000  12.4930000   3.8240000 -23.7960000
   8.6160000  11.3600000 -22.0440000   9.9540000  10.6300000 -21.9320000
   8.7940000  12.8500000 -21.7630000  13.1450000   6.6880000 -26.3510000
  14.0000000   7.6190000 -27.2080000  13.0400000   5.3080000 -26.9990000
  10.8810000  11.7830000 -27.1850000   9.6020000  12.5950000 -27.3750000
  12.1080000  12.6870000 -27.2560000  10.1070000   5.6340000 -22.3650000
   4.8240000   8.5940000 -23.5540000  11.7760000  11.1640000 -25.3420000
   6.9580000   5.2040000 -25.5010000  11.2720000   7.2910000 -27.0840000
   7.5490000  12.0650000 -23.7190000   8.2860000   3.7740000 -25.5050000
   9.4980000   2.9310000 -24.5710000   9.9810000   4.0910000 -25.7840000
   5.4130000  10.4510000 -26.4000000   7.1140000  10.7550000 -26.1380000
   5.9170000  11.7750000 -25.3780000   8.9150000   9.8870000 -27.0150000
   9.1000000   8.3100000 -26.2850000   9.9420000   8.6900000 -27.7680000
   6.7500000   3.8390000 -23.0300000   4.1120000   4.8680000 -24.0400000
   4.8650000   5.3080000 -22.5260000   4.3260000   3.6670000 -22.7890000
   5.3690000   3.3540000 -25.6550000   5.5600000   2.1830000 -24.3720000
   6.9630000   2.7850000 -25.2220000   3.7320000   9.9840000 -25.4540000
   4.2660000   7.3010000 -26.6950000   4.9050000   8.8280000 -27.2540000
   3.1870000   8.5200000 -27.3280000   2.8890000   7.2440000 -24.5550000
   1.8360000   8.4640000 -25.2290000   2.6080000   8.7330000 -23.6850000
  10.6250000   3.0930000 -23.1030000  12.2560000   4.8000000 -21.2410000
  12.1630000   3.0560000 -21.2060000  10.7470000   4.0130000 -20.8430000
  13.1290000   4.6680000 -23.6280000  12.2040000   3.7940000 -24.8260000
  13.0190000   2.9260000 -23.5470000   7.9500000  10.9570000 -21.3100000
  10.6350000  11.0200000 -22.6590000   9.8060000   9.5850000 -22.1060000
  10.3580000  10.7740000 -20.9520000   9.4580000  13.2730000 -22.4870000
   9.2040000  12.9820000 -20.7830000   7.8450000  13.3400000 -21.8210000
  13.6190000   6.5780000 -25.3980000  13.5420000   7.7420000 -28.1670000
  14.9750000   7.1960000 -27.3300000  14.0820000   8.5710000 -26.7270000
  12.5680000   5.3980000 -27.9550000  12.4590000   4.6630000 -26.3730000
  14.0200000   4.8970000 -27.1230000  10.9450000  11.0660000 -27.9770000
   9.5190000  13.3190000 -26.5910000   8.7560000  11.9400000 -27.3460000
   9.6340000  13.0950000 -28.3200000  12.0620000  13.4120000 -26.4710000
  12.1290000  13.1860000 -28.2020000  12.9930000  12.0960000 -27.1450000
