; h2eb_GMX_OPLS.itp created by acpype (v: 2023.10.27) on Thu Sep  4 07:59:47 2025

; For OPLS atomtypes manual fine tuning
; AC_at:OPLS_at:OPLScode: Possible_Alternatives (see ffoplsaa.atp and ffoplsaanb.itp)
; os:x:opls_x: []
; o:O:opls_236: ['272']
; n:N:opls_237: ['238', '239']
; c3:CT:opls_135: ['136', '137', '149', '157', '158', '206', '209', '210', '223B', '224B', '245', '246', '274', '283', '284', '285', '292', '292B', '293B', '296', '307', '308', '505']
; c:C:opls_235: ['271']
; h1:HC:opls_140: []
; hc:HC:opls_140: []

[ moleculetype ]
;name            nrexcl
 h2eb             3

[ atoms ]
;   nr  type  resi  res  atom  cgnr     charge      mass       ; qtot   bond_type
     1 opls_x     1   UNL     O    1    -0.419900      0.00000 ; qtot -0.420  x   
     2 opls_x     1   UNL    O1    2    -0.419900      0.00000 ; qtot -0.840  x   
     3 opls_x     1   UNL    O2    3    -0.419900      0.00000 ; qtot -1.260  x   
     4 opls_236     1   UNL    O3    4    -0.577100     15.99940 ; qtot -1.837  O   
     5 opls_236     1   UNL    O4    5    -0.577100     15.99940 ; qtot -2.414  O   
     6 opls_236     1   UNL    O5    6    -0.577100     15.99940 ; qtot -2.991  O   
     7 opls_236     1   UNL    O6    7    -0.538667     15.99940 ; qtot -3.530  O   
     8 opls_236     1   UNL    O7    8    -0.538667     15.99940 ; qtot -4.068  O   
     9 opls_236     1   UNL    O8    9    -0.538667     15.99940 ; qtot -4.607  O   
    10 opls_237     1   UNL     N   10    -0.467133     14.00670 ; qtot -5.074  N   
    11 opls_237     1   UNL    N1   11    -0.467133     14.00670 ; qtot -5.541  N   
    12 opls_237     1   UNL    N2   12    -0.467133     14.00670 ; qtot -6.008  N   
    13 opls_135     1   UNL     C   13     0.067033     12.01100 ; qtot -5.941  CT  
    14 opls_135     1   UNL    C1   14     0.067033     12.01100 ; qtot -5.874  CT  
    15 opls_135     1   UNL    C2   15     0.067033     12.01100 ; qtot -5.807  CT  
    16 opls_135     1   UNL    C3   16     0.092433     12.01100 ; qtot -5.715  CT  
    17 opls_135     1   UNL    C4   17     0.092433     12.01100 ; qtot -5.622  CT  
    18 opls_135     1   UNL    C5   18     0.092433     12.01100 ; qtot -5.530  CT  
    19 opls_235     1   UNL    C6   19     0.649432     12.01100 ; qtot -4.881  C   
    20 opls_235     1   UNL    C7   20     0.649432     12.01100 ; qtot -4.231  C   
    21 opls_235     1   UNL    C8   21     0.649432     12.01100 ; qtot -3.582  C   
    22 opls_235     1   UNL    C9   22     0.630433     12.01100 ; qtot -2.951  C   
    23 opls_235     1   UNL   C10   23     0.630433     12.01100 ; qtot -2.321  C   
    24 opls_235     1   UNL   C11   24     0.630433     12.01100 ; qtot -1.690  C   
    25 opls_135     1   UNL   C12   25     0.066967     12.01100 ; qtot -1.623  CT  
    26 opls_135     1   UNL   C13   26     0.066967     12.01100 ; qtot -1.556  CT  
    27 opls_135     1   UNL   C14   27     0.066967     12.01100 ; qtot -1.490  CT  
    28 opls_135     1   UNL   C15   28    -0.072033     12.01100 ; qtot -1.562  CT  
    29 opls_135     1   UNL   C16   29    -0.093767     12.01100 ; qtot -1.655  CT  
    30 opls_135     1   UNL   C17   30    -0.093767     12.01100 ; qtot -1.749  CT  
    31 opls_135     1   UNL   C18   31    -0.070367     12.01100 ; qtot -1.819  CT  
    32 opls_135     1   UNL   C19   32    -0.103100     12.01100 ; qtot -1.923  CT  
    33 opls_135     1   UNL   C20   33    -0.103100     12.01100 ; qtot -2.026  CT  
    34 opls_135     1   UNL   C21   34    -0.070367     12.01100 ; qtot -2.096  CT  
    35 opls_135     1   UNL   C22   35    -0.103100     12.01100 ; qtot -2.199  CT  
    36 opls_135     1   UNL   C23   36    -0.103100     12.01100 ; qtot -2.302  CT  
    37 opls_135     1   UNL   C24   37    -0.072033     12.01100 ; qtot -2.374  CT  
    38 opls_135     1   UNL   C25   38    -0.093767     12.01100 ; qtot -2.468  CT  
    39 opls_135     1   UNL   C26   39    -0.093767     12.01100 ; qtot -2.562  CT  
    40 opls_135     1   UNL   C27   40    -0.072033     12.01100 ; qtot -2.634  CT  
    41 opls_135     1   UNL   C28   41    -0.093767     12.01100 ; qtot -2.728  CT  
    42 opls_135     1   UNL   C29   42    -0.093767     12.01100 ; qtot -2.821  CT  
    43 opls_135     1   UNL   C30   43    -0.070367     12.01100 ; qtot -2.892  CT  
    44 opls_135     1   UNL   C31   44    -0.103100     12.01100 ; qtot -2.995  CT  
    45 opls_135     1   UNL   C32   45    -0.103100     12.01100 ; qtot -3.098  CT  
    46 opls_140     1   UNL     H   46     0.124700      1.00800 ; qtot -2.973  HC  
    47 opls_140     1   UNL    H1   47     0.124700      1.00800 ; qtot -2.849  HC  
    48 opls_140     1   UNL    H2   48     0.124700      1.00800 ; qtot -2.724  HC  
    49 opls_140     1   UNL    H3   49     0.089367      1.00800 ; qtot -2.634  HC  
    50 opls_140     1   UNL    H4   50     0.089367      1.00800 ; qtot -2.545  HC  
    51 opls_140     1   UNL    H5   51     0.089367      1.00800 ; qtot -2.456  HC  
    52 opls_140     1   UNL    H6   52     0.051256      1.00800 ; qtot -2.404  HC  
    53 opls_140     1   UNL    H7   53     0.051256      1.00800 ; qtot -2.353  HC  
    54 opls_140     1   UNL    H8   54     0.051256      1.00800 ; qtot -2.302  HC  
    55 opls_140     1   UNL    H9   55     0.051256      1.00800 ; qtot -2.251  HC  
    56 opls_140     1   UNL   H10   56     0.051256      1.00800 ; qtot -2.199  HC  
    57 opls_140     1   UNL   H11   57     0.051256      1.00800 ; qtot -2.148  HC  
    58 opls_140     1   UNL   H12   58     0.051256      1.00800 ; qtot -2.097  HC  
    59 opls_140     1   UNL   H13   59     0.051256      1.00800 ; qtot -2.046  HC  
    60 opls_140     1   UNL   H14   60     0.051256      1.00800 ; qtot -1.994  HC  
    61 opls_140     1   UNL   H15   61     0.078367      1.00800 ; qtot -1.916  HC  
    62 opls_140     1   UNL   H16   62     0.041922      1.00800 ; qtot -1.874  HC  
    63 opls_140     1   UNL   H17   63     0.041922      1.00800 ; qtot -1.832  HC  
    64 opls_140     1   UNL   H18   64     0.041922      1.00800 ; qtot -1.790  HC  
    65 opls_140     1   UNL   H19   65     0.041922      1.00800 ; qtot -1.748  HC  
    66 opls_140     1   UNL   H20   66     0.041922      1.00800 ; qtot -1.706  HC  
    67 opls_140     1   UNL   H21   67     0.041922      1.00800 ; qtot -1.665  HC  
    68 opls_140     1   UNL   H22   68     0.068700      1.00800 ; qtot -1.596  HC  
    69 opls_140     1   UNL   H23   69     0.044367      1.00800 ; qtot -1.551  HC  
    70 opls_140     1   UNL   H24   70     0.044367      1.00800 ; qtot -1.507  HC  
    71 opls_140     1   UNL   H25   71     0.044367      1.00800 ; qtot -1.463  HC  
    72 opls_140     1   UNL   H26   72     0.044367      1.00800 ; qtot -1.418  HC  
    73 opls_140     1   UNL   H27   73     0.044367      1.00800 ; qtot -1.374  HC  
    74 opls_140     1   UNL   H28   74     0.044367      1.00800 ; qtot -1.330  HC  
    75 opls_140     1   UNL   H29   75     0.068700      1.00800 ; qtot -1.261  HC  
    76 opls_140     1   UNL   H30   76     0.044367      1.00800 ; qtot -1.217  HC  
    77 opls_140     1   UNL   H31   77     0.044367      1.00800 ; qtot -1.172  HC  
    78 opls_140     1   UNL   H32   78     0.044367      1.00800 ; qtot -1.128  HC  
    79 opls_140     1   UNL   H33   79     0.044367      1.00800 ; qtot -1.083  HC  
    80 opls_140     1   UNL   H34   80     0.044367      1.00800 ; qtot -1.039  HC  
    81 opls_140     1   UNL   H35   81     0.044367      1.00800 ; qtot -0.995  HC  
    82 opls_140     1   UNL   H36   82     0.078367      1.00800 ; qtot -0.916  HC  
    83 opls_140     1   UNL   H37   83     0.041922      1.00800 ; qtot -0.874  HC  
    84 opls_140     1   UNL   H38   84     0.041922      1.00800 ; qtot -0.832  HC  
    85 opls_140     1   UNL   H39   85     0.041922      1.00800 ; qtot -0.791  HC  
    86 opls_140     1   UNL   H40   86     0.041922      1.00800 ; qtot -0.749  HC  
    87 opls_140     1   UNL   H41   87     0.041922      1.00800 ; qtot -0.707  HC  
    88 opls_140     1   UNL   H42   88     0.041922      1.00800 ; qtot -0.665  HC  
    89 opls_140     1   UNL   H43   89     0.078367      1.00800 ; qtot -0.586  HC  
    90 opls_140     1   UNL   H44   90     0.041922      1.00800 ; qtot -0.545  HC  
    91 opls_140     1   UNL   H45   91     0.041922      1.00800 ; qtot -0.503  HC  
    92 opls_140     1   UNL   H46   92     0.041922      1.00800 ; qtot -0.461  HC  
    93 opls_140     1   UNL   H47   93     0.041922      1.00800 ; qtot -0.419  HC  
    94 opls_140     1   UNL   H48   94     0.041922      1.00800 ; qtot -0.377  HC  
    95 opls_140     1   UNL   H49   95     0.041922      1.00800 ; qtot -0.335  HC  
    96 opls_140     1   UNL   H50   96     0.068700      1.00800 ; qtot -0.266  HC  
    97 opls_140     1   UNL   H51   97     0.044367      1.00800 ; qtot -0.222  HC  
    98 opls_140     1   UNL   H52   98     0.044367      1.00800 ; qtot -0.177  HC  
    99 opls_140     1   UNL   H53   99     0.044367      1.00800 ; qtot -0.133  HC  
   100 opls_140     1   UNL   H54  100     0.044367      1.00800 ; qtot -0.089  HC  
   101 opls_140     1   UNL   H55  101     0.044367      1.00800 ; qtot -0.044  HC  
   102 opls_140     1   UNL   H56  102     0.044367      1.00800 ; qtot  0.000  HC  

[ bonds ]
;   ai     aj funct   r             k
     1     16   1 ;    1.4273e-01    2.3620e+05 ;      O - C3          x - CT    
     1     22   1 ;    1.3621e-01    2.9398e+05 ;      O - C9          x - C     
     2     17   1 ;    1.4273e-01    2.3620e+05 ;     O1 - C4          x - CT    
     2     23   1 ;    1.3621e-01    2.9398e+05 ;     O1 - C10         x - C     
     3     18   1 ;    1.4273e-01    2.3620e+05 ;     O2 - C5          x - CT    
     3     24   1 ;    1.3621e-01    2.9398e+05 ;     O2 - C11         x - C     
     4     19   1 ;    1.2190e-01    4.9421e+05 ;     O3 - C6          O - C     
     5     20   1 ;    1.2190e-01    4.9421e+05 ;     O4 - C7          O - C     
     6     21   1 ;    1.2190e-01    4.9421e+05 ;     O5 - C8          O - C     
     7     22   1 ;    1.2190e-01    4.9421e+05 ;     O6 - C9          O - C     
     8     23   1 ;    1.2190e-01    4.9421e+05 ;     O7 - C10         O - C     
     9     24   1 ;    1.2190e-01    4.9421e+05 ;     O8 - C11         O - C     
    10     13   1 ;    1.4643e-01    2.1293e+05 ;      N - C           N - CT    
    10     19   1 ;    1.3967e-01    2.6565e+05 ;      N - C6          N - C     
    10     25   1 ;    1.4643e-01    2.1293e+05 ;      N - C12         N - CT    
    11     14   1 ;    1.4643e-01    2.1293e+05 ;     N1 - C1          N - CT    
    11     20   1 ;    1.3967e-01    2.6565e+05 ;     N1 - C7          N - C     
    11     26   1 ;    1.4643e-01    2.1293e+05 ;     N1 - C13         N - CT    
    12     15   1 ;    1.4643e-01    2.1293e+05 ;     N2 - C2          N - CT    
    12     21   1 ;    1.3967e-01    2.6565e+05 ;     N2 - C8          N - C     
    12     27   1 ;    1.4643e-01    2.1293e+05 ;     N2 - C14         N - CT    
    13     23   1 ;    1.5270e-01    1.9652e+05 ;      C - C10        CT - C     
    13     34   1 ;    1.5354e-01    1.9154e+05 ;      C - C21        CT - CT    
    13     46   1 ;    1.0969e-01    2.8804e+05 ;      C - H          CT - HC    
    14     22   1 ;    1.5270e-01    1.9652e+05 ;     C1 - C9         CT - C     
    14     31   1 ;    1.5354e-01    1.9154e+05 ;     C1 - C18        CT - CT    
    14     47   1 ;    1.0969e-01    2.8804e+05 ;     C1 - H1         CT - HC    
    15     24   1 ;    1.5270e-01    1.9652e+05 ;     C2 - C11        CT - C     
    15     43   1 ;    1.5354e-01    1.9154e+05 ;     C2 - C30        CT - CT    
    15     48   1 ;    1.0969e-01    2.8804e+05 ;     C2 - H2         CT - HC    
    16     19   1 ;    1.5270e-01    1.9652e+05 ;     C3 - C6         CT - C     
    16     28   1 ;    1.5354e-01    1.9154e+05 ;     C3 - C15        CT - CT    
    16     49   1 ;    1.0969e-01    2.8804e+05 ;     C3 - H3         CT - HC    
    17     21   1 ;    1.5270e-01    1.9652e+05 ;     C4 - C8         CT - C     
    17     40   1 ;    1.5354e-01    1.9154e+05 ;     C4 - C27        CT - CT    
    17     50   1 ;    1.0969e-01    2.8804e+05 ;     C4 - H4         CT - HC    
    18     20   1 ;    1.5270e-01    1.9652e+05 ;     C5 - C7         CT - C     
    18     37   1 ;    1.5354e-01    1.9154e+05 ;     C5 - C24        CT - CT    
    18     51   1 ;    1.0969e-01    2.8804e+05 ;     C5 - H5         CT - HC    
    25     52   1 ;    1.0969e-01    2.8804e+05 ;    C12 - H6         CT - HC    
    25     53   1 ;    1.0969e-01    2.8804e+05 ;    C12 - H7         CT - HC    
    25     54   1 ;    1.0969e-01    2.8804e+05 ;    C12 - H8         CT - HC    
    26     55   1 ;    1.0969e-01    2.8804e+05 ;    C13 - H9         CT - HC    
    26     56   1 ;    1.0969e-01    2.8804e+05 ;    C13 - H10        CT - HC    
    26     57   1 ;    1.0969e-01    2.8804e+05 ;    C13 - H11        CT - HC    
    27     58   1 ;    1.0969e-01    2.8804e+05 ;    C14 - H12        CT - HC    
    27     59   1 ;    1.0969e-01    2.8804e+05 ;    C14 - H13        CT - HC    
    27     60   1 ;    1.0969e-01    2.8804e+05 ;    C14 - H14        CT - HC    
    28     29   1 ;    1.5354e-01    1.9154e+05 ;    C15 - C16        CT - CT    
    28     30   1 ;    1.5354e-01    1.9154e+05 ;    C15 - C17        CT - CT    
    28     61   1 ;    1.0962e-01    2.8891e+05 ;    C15 - H15        CT - HC    
    29     62   1 ;    1.0962e-01    2.8891e+05 ;    C16 - H16        CT - HC    
    29     63   1 ;    1.0962e-01    2.8891e+05 ;    C16 - H17        CT - HC    
    29     64   1 ;    1.0962e-01    2.8891e+05 ;    C16 - H18        CT - HC    
    30     65   1 ;    1.0962e-01    2.8891e+05 ;    C17 - H19        CT - HC    
    30     66   1 ;    1.0962e-01    2.8891e+05 ;    C17 - H20        CT - HC    
    30     67   1 ;    1.0962e-01    2.8891e+05 ;    C17 - H21        CT - HC    
    31     32   1 ;    1.5354e-01    1.9154e+05 ;    C18 - C19        CT - CT    
    31     33   1 ;    1.5354e-01    1.9154e+05 ;    C18 - C20        CT - CT    
    31     68   1 ;    1.0962e-01    2.8891e+05 ;    C18 - H22        CT - HC    
    32     69   1 ;    1.0962e-01    2.8891e+05 ;    C19 - H23        CT - HC    
    32     70   1 ;    1.0962e-01    2.8891e+05 ;    C19 - H24        CT - HC    
    32     71   1 ;    1.0962e-01    2.8891e+05 ;    C19 - H25        CT - HC    
    33     72   1 ;    1.0962e-01    2.8891e+05 ;    C20 - H26        CT - HC    
    33     73   1 ;    1.0962e-01    2.8891e+05 ;    C20 - H27        CT - HC    
    33     74   1 ;    1.0962e-01    2.8891e+05 ;    C20 - H28        CT - HC    
    34     35   1 ;    1.5354e-01    1.9154e+05 ;    C21 - C22        CT - CT    
    34     36   1 ;    1.5354e-01    1.9154e+05 ;    C21 - C23        CT - CT    
    34     75   1 ;    1.0962e-01    2.8891e+05 ;    C21 - H29        CT - HC    
    35     76   1 ;    1.0962e-01    2.8891e+05 ;    C22 - H30        CT - HC    
    35     77   1 ;    1.0962e-01    2.8891e+05 ;    C22 - H31        CT - HC    
    35     78   1 ;    1.0962e-01    2.8891e+05 ;    C22 - H32        CT - HC    
    36     79   1 ;    1.0962e-01    2.8891e+05 ;    C23 - H33        CT - HC    
    36     80   1 ;    1.0962e-01    2.8891e+05 ;    C23 - H34        CT - HC    
    36     81   1 ;    1.0962e-01    2.8891e+05 ;    C23 - H35        CT - HC    
    37     38   1 ;    1.5354e-01    1.9154e+05 ;    C24 - C25        CT - CT    
    37     39   1 ;    1.5354e-01    1.9154e+05 ;    C24 - C26        CT - CT    
    37     82   1 ;    1.0962e-01    2.8891e+05 ;    C24 - H36        CT - HC    
    38     83   1 ;    1.0962e-01    2.8891e+05 ;    C25 - H37        CT - HC    
    38     84   1 ;    1.0962e-01    2.8891e+05 ;    C25 - H38        CT - HC    
    38     85   1 ;    1.0962e-01    2.8891e+05 ;    C25 - H39        CT - HC    
    39     86   1 ;    1.0962e-01    2.8891e+05 ;    C26 - H40        CT - HC    
    39     87   1 ;    1.0962e-01    2.8891e+05 ;    C26 - H41        CT - HC    
    39     88   1 ;    1.0962e-01    2.8891e+05 ;    C26 - H42        CT - HC    
    40     41   1 ;    1.5354e-01    1.9154e+05 ;    C27 - C28        CT - CT    
    40     42   1 ;    1.5354e-01    1.9154e+05 ;    C27 - C29        CT - CT    
    40     89   1 ;    1.0962e-01    2.8891e+05 ;    C27 - H43        CT - HC    
    41     90   1 ;    1.0962e-01    2.8891e+05 ;    C28 - H44        CT - HC    
    41     91   1 ;    1.0962e-01    2.8891e+05 ;    C28 - H45        CT - HC    
    41     92   1 ;    1.0962e-01    2.8891e+05 ;    C28 - H46        CT - HC    
    42     93   1 ;    1.0962e-01    2.8891e+05 ;    C29 - H47        CT - HC    
    42     94   1 ;    1.0962e-01    2.8891e+05 ;    C29 - H48        CT - HC    
    42     95   1 ;    1.0962e-01    2.8891e+05 ;    C29 - H49        CT - HC    
    43     44   1 ;    1.5354e-01    1.9154e+05 ;    C30 - C31        CT - CT    
    43     45   1 ;    1.5354e-01    1.9154e+05 ;    C30 - C32        CT - CT    
    43     96   1 ;    1.0962e-01    2.8891e+05 ;    C30 - H50        CT - HC    
    44     97   1 ;    1.0962e-01    2.8891e+05 ;    C31 - H51        CT - HC    
    44     98   1 ;    1.0962e-01    2.8891e+05 ;    C31 - H52        CT - HC    
    44     99   1 ;    1.0962e-01    2.8891e+05 ;    C31 - H53        CT - HC    
    45    100   1 ;    1.0962e-01    2.8891e+05 ;    C32 - H54        CT - HC    
    45    101   1 ;    1.0962e-01    2.8891e+05 ;    C32 - H55        CT - HC    
    45    102   1 ;    1.0962e-01    2.8891e+05 ;    C32 - H56        CT - HC    

[ pairs ]
;   ai     aj    funct
     1      4      1 ;      O - O3    
     1     10      1 ;      O - N     
     1     11      1 ;      O - N1    
     1     29      1 ;      O - C16   
     1     30      1 ;      O - C17   
     1     31      1 ;      O - C18   
     1     47      1 ;      O - H1    
     1     61      1 ;      O - H15   
     2      6      1 ;     O1 - O5    
     2     10      1 ;     O1 - N     
     2     12      1 ;     O1 - N2    
     2     34      1 ;     O1 - C21   
     2     41      1 ;     O1 - C28   
     2     42      1 ;     O1 - C29   
     2     46      1 ;     O1 - H     
     2     89      1 ;     O1 - H43   
     3      5      1 ;     O2 - O4    
     3     11      1 ;     O2 - N1    
     3     12      1 ;     O2 - N2    
     3     38      1 ;     O2 - C25   
     3     39      1 ;     O2 - C26   
     3     43      1 ;     O2 - C30   
     3     48      1 ;     O2 - H2    
     3     82      1 ;     O2 - H36   
     4     13      1 ;     O3 - C     
     4     25      1 ;     O3 - C12   
     4     28      1 ;     O3 - C15   
     4     49      1 ;     O3 - H3    
     5     14      1 ;     O4 - C1    
     5     26      1 ;     O4 - C13   
     5     37      1 ;     O4 - C24   
     5     51      1 ;     O4 - H5    
     6     15      1 ;     O5 - C2    
     6     27      1 ;     O5 - C14   
     6     40      1 ;     O5 - C27   
     6     50      1 ;     O5 - H4    
     7     11      1 ;     O6 - N1    
     7     31      1 ;     O6 - C18   
     7     47      1 ;     O6 - H1    
     8     10      1 ;     O7 - N     
     8     17      1 ;     O7 - C4    
     8     34      1 ;     O7 - C21   
     8     46      1 ;     O7 - H     
     9     12      1 ;     O8 - N2    
     9     18      1 ;     O8 - C5    
     9     43      1 ;     O8 - C30   
     9     48      1 ;     O8 - H2    
    10     28      1 ;      N - C15   
    10     35      1 ;      N - C22   
    10     36      1 ;      N - C23   
    10     49      1 ;      N - H3    
    10     75      1 ;      N - H29   
    11     32      1 ;     N1 - C19   
    11     33      1 ;     N1 - C20   
    11     37      1 ;     N1 - C24   
    11     51      1 ;     N1 - H5    
    11     68      1 ;     N1 - H22   
    12     40      1 ;     N2 - C27   
    12     44      1 ;     N2 - C31   
    12     45      1 ;     N2 - C32   
    12     50      1 ;     N2 - H4    
    12     96      1 ;     N2 - H50   
    13     16      1 ;      C - C3    
    13     17      1 ;      C - C4    
    13     52      1 ;      C - H6    
    13     53      1 ;      C - H7    
    13     54      1 ;      C - H8    
    13     76      1 ;      C - H30   
    13     77      1 ;      C - H31   
    13     78      1 ;      C - H32   
    13     79      1 ;      C - H33   
    13     80      1 ;      C - H34   
    13     81      1 ;      C - H35   
    14     18      1 ;     C1 - C5    
    14     55      1 ;     C1 - H9    
    14     56      1 ;     C1 - H10   
    14     57      1 ;     C1 - H11   
    14     69      1 ;     C1 - H23   
    14     70      1 ;     C1 - H24   
    14     71      1 ;     C1 - H25   
    14     72      1 ;     C1 - H26   
    14     73      1 ;     C1 - H27   
    14     74      1 ;     C1 - H28   
    15     17      1 ;     C2 - C4    
    15     18      1 ;     C2 - C5    
    15     58      1 ;     C2 - H12   
    15     59      1 ;     C2 - H13   
    15     60      1 ;     C2 - H14   
    15     97      1 ;     C2 - H51   
    15     98      1 ;     C2 - H52   
    15     99      1 ;     C2 - H53   
    15    100      1 ;     C2 - H54   
    15    101      1 ;     C2 - H55   
    15    102      1 ;     C2 - H56   
    16      7      1 ;     C3 - O6    
    16     14      1 ;     C3 - C1    
    16     25      1 ;     C3 - C12   
    16     62      1 ;     C3 - H16   
    16     63      1 ;     C3 - H17   
    16     64      1 ;     C3 - H18   
    16     65      1 ;     C3 - H19   
    16     66      1 ;     C3 - H20   
    16     67      1 ;     C3 - H21   
    17     27      1 ;     C4 - C14   
    17     90      1 ;     C4 - H44   
    17     91      1 ;     C4 - H45   
    17     92      1 ;     C4 - H46   
    17     93      1 ;     C4 - H47   
    17     94      1 ;     C4 - H48   
    17     95      1 ;     C4 - H49   
    18     26      1 ;     C5 - C13   
    18     83      1 ;     C5 - H37   
    18     84      1 ;     C5 - H38   
    18     85      1 ;     C5 - H39   
    18     86      1 ;     C5 - H40   
    18     87      1 ;     C5 - H41   
    18     88      1 ;     C5 - H42   
    19     23      1 ;     C6 - C10   
    19     29      1 ;     C6 - C16   
    19     30      1 ;     C6 - C17   
    19     34      1 ;     C6 - C21   
    19     46      1 ;     C6 - H     
    19     52      1 ;     C6 - H6    
    19     53      1 ;     C6 - H7    
    19     54      1 ;     C6 - H8    
    19     61      1 ;     C6 - H15   
    20     22      1 ;     C7 - C9    
    20     24      1 ;     C7 - C11   
    20     31      1 ;     C7 - C18   
    20     38      1 ;     C7 - C25   
    20     39      1 ;     C7 - C26   
    20     47      1 ;     C7 - H1    
    20     55      1 ;     C7 - H9    
    20     56      1 ;     C7 - H10   
    20     57      1 ;     C7 - H11   
    20     82      1 ;     C7 - H36   
    21     23      1 ;     C8 - C10   
    21     24      1 ;     C8 - C11   
    21     41      1 ;     C8 - C28   
    21     42      1 ;     C8 - C29   
    21     43      1 ;     C8 - C30   
    21     48      1 ;     C8 - H2    
    21     58      1 ;     C8 - H12   
    21     59      1 ;     C8 - H13   
    21     60      1 ;     C8 - H14   
    21     89      1 ;     C8 - H43   
    22     19      1 ;     C9 - C6    
    22     26      1 ;     C9 - C13   
    22     28      1 ;     C9 - C15   
    22     32      1 ;     C9 - C19   
    22     33      1 ;     C9 - C20   
    22     49      1 ;     C9 - H3    
    22     68      1 ;     C9 - H22   
    23     25      1 ;    C10 - C12   
    23     35      1 ;    C10 - C22   
    23     36      1 ;    C10 - C23   
    23     40      1 ;    C10 - C27   
    23     50      1 ;    C10 - H4    
    23     75      1 ;    C10 - H29   
    24     27      1 ;    C11 - C14   
    24     37      1 ;    C11 - C24   
    24     44      1 ;    C11 - C31   
    24     45      1 ;    C11 - C32   
    24     51      1 ;    C11 - H5    
    24     96      1 ;    C11 - H50   
    25     34      1 ;    C12 - C21   
    25     46      1 ;    C12 - H     
    26     31      1 ;    C13 - C18   
    26     47      1 ;    C13 - H1    
    27     43      1 ;    C14 - C30   
    27     48      1 ;    C14 - H2    
    29     49      1 ;    C16 - H3    
    29     65      1 ;    C16 - H19   
    29     66      1 ;    C16 - H20   
    29     67      1 ;    C16 - H21   
    30     49      1 ;    C17 - H3    
    30     62      1 ;    C17 - H16   
    30     63      1 ;    C17 - H17   
    30     64      1 ;    C17 - H18   
    32     47      1 ;    C19 - H1    
    32     72      1 ;    C19 - H26   
    32     73      1 ;    C19 - H27   
    32     74      1 ;    C19 - H28   
    33     47      1 ;    C20 - H1    
    33     69      1 ;    C20 - H23   
    33     70      1 ;    C20 - H24   
    33     71      1 ;    C20 - H25   
    35     46      1 ;    C22 - H     
    35     79      1 ;    C22 - H33   
    35     80      1 ;    C22 - H34   
    35     81      1 ;    C22 - H35   
    36     46      1 ;    C23 - H     
    36     76      1 ;    C23 - H30   
    36     77      1 ;    C23 - H31   
    36     78      1 ;    C23 - H32   
    38     51      1 ;    C25 - H5    
    38     86      1 ;    C25 - H40   
    38     87      1 ;    C25 - H41   
    38     88      1 ;    C25 - H42   
    39     51      1 ;    C26 - H5    
    39     83      1 ;    C26 - H37   
    39     84      1 ;    C26 - H38   
    39     85      1 ;    C26 - H39   
    41     50      1 ;    C28 - H4    
    41     93      1 ;    C28 - H47   
    41     94      1 ;    C28 - H48   
    41     95      1 ;    C28 - H49   
    42     50      1 ;    C29 - H4    
    42     90      1 ;    C29 - H44   
    42     91      1 ;    C29 - H45   
    42     92      1 ;    C29 - H46   
    44     48      1 ;    C31 - H2    
    44    100      1 ;    C31 - H54   
    44    101      1 ;    C31 - H55   
    44    102      1 ;    C31 - H56   
    45     48      1 ;    C32 - H2    
    45     97      1 ;    C32 - H51   
    45     98      1 ;    C32 - H52   
    45     99      1 ;    C32 - H53   
    46     75      1 ;      H - H29   
    47     68      1 ;     H1 - H22   
    48     96      1 ;     H2 - H50   
    49     61      1 ;     H3 - H15   
    50     89      1 ;     H4 - H43   
    51     82      1 ;     H5 - H36   
    61     62      1 ;    H15 - H16   
    61     63      1 ;    H15 - H17   
    61     64      1 ;    H15 - H18   
    61     65      1 ;    H15 - H19   
    61     66      1 ;    H15 - H20   
    61     67      1 ;    H15 - H21   
    68     69      1 ;    H22 - H23   
    68     70      1 ;    H22 - H24   
    68     71      1 ;    H22 - H25   
    68     72      1 ;    H22 - H26   
    68     73      1 ;    H22 - H27   
    68     74      1 ;    H22 - H28   
    75     76      1 ;    H29 - H30   
    75     77      1 ;    H29 - H31   
    75     78      1 ;    H29 - H32   
    75     79      1 ;    H29 - H33   
    75     80      1 ;    H29 - H34   
    75     81      1 ;    H29 - H35   
    82     83      1 ;    H36 - H37   
    82     84      1 ;    H36 - H38   
    82     85      1 ;    H36 - H39   
    82     86      1 ;    H36 - H40   
    82     87      1 ;    H36 - H41   
    82     88      1 ;    H36 - H42   
    89     90      1 ;    H43 - H44   
    89     91      1 ;    H43 - H45   
    89     92      1 ;    H43 - H46   
    89     93      1 ;    H43 - H47   
    89     94      1 ;    H43 - H48   
    89     95      1 ;    H43 - H49   
    96     97      1 ;    H50 - H51   
    96     98      1 ;    H50 - H52   
    96     99      1 ;    H50 - H53   
    96    100      1 ;    H50 - H54   
    96    101      1 ;    H50 - H55   
    96    102      1 ;    H50 - H56   

[ angles ]
;   ai     aj     ak    funct   theta         cth
     1     16     19      1 ;    1.0927e+02    6.4517e+02 ;      O - C3   - C6        x -   CT - C   
     1     16     28      1 ;    1.0762e+02    6.4802e+02 ;      O - C3   - C15       x -   CT - CT  
     1     16     49      1 ;    1.1034e+02    4.7028e+02 ;      O - C3   - H3        x -   CT - HC  
     1     22      7      1 ;    1.2320e+02    8.4734e+02 ;      O - C9   - O6        x -    C - O   
     1     22     14      1 ;    1.1080e+02    6.5245e+02 ;      O - C9   - C1        x -    C - CT  
     2     17     21      1 ;    1.0927e+02    6.4517e+02 ;     O1 - C4   - C8        x -   CT - C   
     2     17     40      1 ;    1.0762e+02    6.4802e+02 ;     O1 - C4   - C27       x -   CT - CT  
     2     17     50      1 ;    1.1034e+02    4.7028e+02 ;     O1 - C4   - H4        x -   CT - HC  
     2     23      8      1 ;    1.2320e+02    8.4734e+02 ;     O1 - C10  - O7        x -    C - O   
     2     23     13      1 ;    1.1080e+02    6.5245e+02 ;     O1 - C10  - C         x -    C - CT  
     3     18     20      1 ;    1.0927e+02    6.4517e+02 ;     O2 - C5   - C7        x -   CT - C   
     3     18     37      1 ;    1.0762e+02    6.4802e+02 ;     O2 - C5   - C24       x -   CT - CT  
     3     18     51      1 ;    1.1034e+02    4.7028e+02 ;     O2 - C5   - H5        x -   CT - HC  
     3     24      9      1 ;    1.2320e+02    8.4734e+02 ;     O2 - C11  - O8        x -    C - O   
     3     24     15      1 ;    1.1080e+02    6.5245e+02 ;     O2 - C11  - C2        x -    C - CT  
     4     19     10      1 ;    1.2257e+02    7.2534e+02 ;     O3 - C6   - N         O -    C - N   
     4     19     16      1 ;    1.2290e+02    6.3973e+02 ;     O3 - C6   - C3        O -    C - CT  
     5     20     11      1 ;    1.2257e+02    7.2534e+02 ;     O4 - C7   - N1        O -    C - N   
     5     20     18      1 ;    1.2290e+02    6.3973e+02 ;     O4 - C7   - C5        O -    C - CT  
     6     21     12      1 ;    1.2257e+02    7.2534e+02 ;     O5 - C8   - N2        O -    C - N   
     6     21     17      1 ;    1.2290e+02    6.3973e+02 ;     O5 - C8   - C4        O -    C - CT  
     7     22     14      1 ;    1.2290e+02    6.3973e+02 ;     O6 - C9   - C1        O -    C - CT  
     8     23     13      1 ;    1.2290e+02    6.3973e+02 ;     O7 - C10  - C         O -    C - CT  
     9     24     15      1 ;    1.2290e+02    6.3973e+02 ;     O8 - C11  - C2        O -    C - CT  
    10     13     23      1 ;    1.1194e+02    5.4718e+02 ;      N - C    - C10       N -   CT - C   
    10     13     34      1 ;    1.1278e+02    5.4350e+02 ;      N - C    - C21       N -   CT - CT  
    10     13     46      1 ;    1.0876e+02    4.0242e+02 ;      N - C    - H         N -   CT - HC  
    10     19     16      1 ;    1.1716e+02    5.4551e+02 ;      N - C6   - C3        N -    C - CT  
    10     25     52      1 ;    1.0876e+02    4.0242e+02 ;      N - C12  - H6        N -   CT - HC  
    10     25     53      1 ;    1.0876e+02    4.0242e+02 ;      N - C12  - H7        N -   CT - HC  
    10     25     54      1 ;    1.0876e+02    4.0242e+02 ;      N - C12  - H8        N -   CT - HC  
    11     14     22      1 ;    1.1194e+02    5.4718e+02 ;     N1 - C1   - C9        N -   CT - C   
    11     14     31      1 ;    1.1278e+02    5.4350e+02 ;     N1 - C1   - C18       N -   CT - CT  
    11     14     47      1 ;    1.0876e+02    4.0242e+02 ;     N1 - C1   - H1        N -   CT - HC  
    11     20     18      1 ;    1.1716e+02    5.4551e+02 ;     N1 - C7   - C5        N -    C - CT  
    11     26     55      1 ;    1.0876e+02    4.0242e+02 ;     N1 - C13  - H9        N -   CT - HC  
    11     26     56      1 ;    1.0876e+02    4.0242e+02 ;     N1 - C13  - H10       N -   CT - HC  
    11     26     57      1 ;    1.0876e+02    4.0242e+02 ;     N1 - C13  - H11       N -   CT - HC  
    12     15     24      1 ;    1.1194e+02    5.4718e+02 ;     N2 - C2   - C11       N -   CT - C   
    12     15     43      1 ;    1.1278e+02    5.4350e+02 ;     N2 - C2   - C30       N -   CT - CT  
    12     15     48      1 ;    1.0876e+02    4.0242e+02 ;     N2 - C2   - H2        N -   CT - HC  
    12     21     17      1 ;    1.1716e+02    5.4551e+02 ;     N2 - C8   - C4        N -    C - CT  
    12     27     58      1 ;    1.0876e+02    4.0242e+02 ;     N2 - C14  - H12       N -   CT - HC  
    12     27     59      1 ;    1.0876e+02    4.0242e+02 ;     N2 - C14  - H13       N -   CT - HC  
    12     27     60      1 ;    1.0876e+02    4.0242e+02 ;     N2 - C14  - H14       N -   CT - HC  
    13     10     19      1 ;    1.1883e+02    6.4634e+02 ;      C - N    - C6       CT -    N - C   
    13     10     25      1 ;    1.1675e+02    6.3773e+02 ;      C - N    - C12      CT -    N - CT  
    13     34     35      1 ;    1.1263e+02    5.0099e+02 ;      C - C21  - C22      CT -   CT - CT  
    13     34     36      1 ;    1.1263e+02    5.0099e+02 ;      C - C21  - C23      CT -   CT - CT  
    13     34     75      1 ;    1.0968e+02    3.6208e+02 ;      C - C21  - H29      CT -   CT - HC  
    14     11     20      1 ;    1.1883e+02    6.4634e+02 ;     C1 - N1   - C7       CT -    N - C   
    14     11     26      1 ;    1.1675e+02    6.3773e+02 ;     C1 - N1   - C13      CT -    N - CT  
    14     31     32      1 ;    1.1263e+02    5.0099e+02 ;     C1 - C18  - C19      CT -   CT - CT  
    14     31     33      1 ;    1.1263e+02    5.0099e+02 ;     C1 - C18  - C20      CT -   CT - CT  
    14     31     68      1 ;    1.0968e+02    3.6208e+02 ;     C1 - C18  - H22      CT -   CT - HC  
    15     12     21      1 ;    1.1883e+02    6.4634e+02 ;     C2 - N2   - C8       CT -    N - C   
    15     12     27      1 ;    1.1675e+02    6.3773e+02 ;     C2 - N2   - C14      CT -    N - CT  
    15     43     44      1 ;    1.1263e+02    5.0099e+02 ;     C2 - C30  - C31      CT -   CT - CT  
    15     43     45      1 ;    1.1263e+02    5.0099e+02 ;     C2 - C30  - C32      CT -   CT - CT  
    15     43     96      1 ;    1.0968e+02    3.6208e+02 ;     C2 - C30  - H50      CT -   CT - HC  
    16      1     22      1 ;    1.1582e+02    7.4835e+02 ;     C3 - O    - C9       CT -    x - C   
    16     28     29      1 ;    1.1263e+02    5.0099e+02 ;     C3 - C15  - C16      CT -   CT - CT  
    16     28     30      1 ;    1.1263e+02    5.0099e+02 ;     C3 - C15  - C17      CT -   CT - CT  
    16     28     61      1 ;    1.0968e+02    3.6208e+02 ;     C3 - C15  - H15      CT -   CT - HC  
    17      2     23      1 ;    1.1582e+02    7.4835e+02 ;     C4 - O1   - C10      CT -    x - C   
    17     40     41      1 ;    1.1263e+02    5.0099e+02 ;     C4 - C27  - C28      CT -   CT - CT  
    17     40     42      1 ;    1.1263e+02    5.0099e+02 ;     C4 - C27  - C29      CT -   CT - CT  
    17     40     89      1 ;    1.0968e+02    3.6208e+02 ;     C4 - C27  - H43      CT -   CT - HC  
    18      3     24      1 ;    1.1582e+02    7.4835e+02 ;     C5 - O2   - C11      CT -    x - C   
    18     37     38      1 ;    1.1263e+02    5.0099e+02 ;     C5 - C24  - C25      CT -   CT - CT  
    18     37     39      1 ;    1.1263e+02    5.0099e+02 ;     C5 - C24  - C26      CT -   CT - CT  
    18     37     82      1 ;    1.0968e+02    3.6208e+02 ;     C5 - C24  - H36      CT -   CT - HC  
    19     10     25      1 ;    1.1883e+02    6.4634e+02 ;     C6 - N    - C12       C -    N - CT  
    19     16     28      1 ;    1.1143e+02    5.0509e+02 ;     C6 - C3   - C15       C -   CT - CT  
    19     16     49      1 ;    1.0837e+02    3.6602e+02 ;     C6 - C3   - H3        C -   CT - HC  
    20     11     26      1 ;    1.1883e+02    6.4634e+02 ;     C7 - N1   - C13       C -    N - CT  
    20     18     37      1 ;    1.1143e+02    5.0509e+02 ;     C7 - C5   - C24       C -   CT - CT  
    20     18     51      1 ;    1.0837e+02    3.6602e+02 ;     C7 - C5   - H5        C -   CT - HC  
    21     12     27      1 ;    1.1883e+02    6.4634e+02 ;     C8 - N2   - C14       C -    N - CT  
    21     17     40      1 ;    1.1143e+02    5.0509e+02 ;     C8 - C4   - C27       C -   CT - CT  
    21     17     50      1 ;    1.0837e+02    3.6602e+02 ;     C8 - C4   - H4        C -   CT - HC  
    22     14     31      1 ;    1.1143e+02    5.0509e+02 ;     C9 - C1   - C18       C -   CT - CT  
    22     14     47      1 ;    1.0837e+02    3.6602e+02 ;     C9 - C1   - H1        C -   CT - HC  
    23     13     34      1 ;    1.1143e+02    5.0509e+02 ;    C10 - C    - C21       C -   CT - CT  
    23     13     46      1 ;    1.0837e+02    3.6602e+02 ;    C10 - C    - H         C -   CT - HC  
    24     15     43      1 ;    1.1143e+02    5.0509e+02 ;    C11 - C2   - C30       C -   CT - CT  
    24     15     48      1 ;    1.0837e+02    3.6602e+02 ;    C11 - C2   - H2        C -   CT - HC  
    28     16     49      1 ;    1.0959e+02    3.6217e+02 ;    C15 - C3   - H3       CT -   CT - HC  
    28     29     62      1 ;    1.0968e+02    3.6208e+02 ;    C15 - C16  - H16      CT -   CT - HC  
    28     29     63      1 ;    1.0968e+02    3.6208e+02 ;    C15 - C16  - H17      CT -   CT - HC  
    28     29     64      1 ;    1.0968e+02    3.6208e+02 ;    C15 - C16  - H18      CT -   CT - HC  
    28     30     65      1 ;    1.0968e+02    3.6208e+02 ;    C15 - C17  - H19      CT -   CT - HC  
    28     30     66      1 ;    1.0968e+02    3.6208e+02 ;    C15 - C17  - H20      CT -   CT - HC  
    28     30     67      1 ;    1.0968e+02    3.6208e+02 ;    C15 - C17  - H21      CT -   CT - HC  
    29     28     30      1 ;    1.1263e+02    5.0099e+02 ;    C16 - C15  - C17      CT -   CT - CT  
    29     28     61      1 ;    1.0968e+02    3.6208e+02 ;    C16 - C15  - H15      CT -   CT - HC  
    30     28     61      1 ;    1.0968e+02    3.6208e+02 ;    C17 - C15  - H15      CT -   CT - HC  
    31     14     47      1 ;    1.0959e+02    3.6217e+02 ;    C18 - C1   - H1       CT -   CT - HC  
    31     32     69      1 ;    1.0968e+02    3.6208e+02 ;    C18 - C19  - H23      CT -   CT - HC  
    31     32     70      1 ;    1.0968e+02    3.6208e+02 ;    C18 - C19  - H24      CT -   CT - HC  
    31     32     71      1 ;    1.0968e+02    3.6208e+02 ;    C18 - C19  - H25      CT -   CT - HC  
    31     33     72      1 ;    1.0968e+02    3.6208e+02 ;    C18 - C20  - H26      CT -   CT - HC  
    31     33     73      1 ;    1.0968e+02    3.6208e+02 ;    C18 - C20  - H27      CT -   CT - HC  
    31     33     74      1 ;    1.0968e+02    3.6208e+02 ;    C18 - C20  - H28      CT -   CT - HC  
    32     31     33      1 ;    1.1263e+02    5.0099e+02 ;    C19 - C18  - C20      CT -   CT - CT  
    32     31     68      1 ;    1.0968e+02    3.6208e+02 ;    C19 - C18  - H22      CT -   CT - HC  
    33     31     68      1 ;    1.0968e+02    3.6208e+02 ;    C20 - C18  - H22      CT -   CT - HC  
    34     13     46      1 ;    1.0959e+02    3.6217e+02 ;    C21 - C    - H        CT -   CT - HC  
    34     35     76      1 ;    1.0968e+02    3.6208e+02 ;    C21 - C22  - H30      CT -   CT - HC  
    34     35     77      1 ;    1.0968e+02    3.6208e+02 ;    C21 - C22  - H31      CT -   CT - HC  
    34     35     78      1 ;    1.0968e+02    3.6208e+02 ;    C21 - C22  - H32      CT -   CT - HC  
    34     36     79      1 ;    1.0968e+02    3.6208e+02 ;    C21 - C23  - H33      CT -   CT - HC  
    34     36     80      1 ;    1.0968e+02    3.6208e+02 ;    C21 - C23  - H34      CT -   CT - HC  
    34     36     81      1 ;    1.0968e+02    3.6208e+02 ;    C21 - C23  - H35      CT -   CT - HC  
    35     34     36      1 ;    1.1263e+02    5.0099e+02 ;    C22 - C21  - C23      CT -   CT - CT  
    35     34     75      1 ;    1.0968e+02    3.6208e+02 ;    C22 - C21  - H29      CT -   CT - HC  
    36     34     75      1 ;    1.0968e+02    3.6208e+02 ;    C23 - C21  - H29      CT -   CT - HC  
    37     18     51      1 ;    1.0959e+02    3.6217e+02 ;    C24 - C5   - H5       CT -   CT - HC  
    37     38     83      1 ;    1.0968e+02    3.6208e+02 ;    C24 - C25  - H37      CT -   CT - HC  
    37     38     84      1 ;    1.0968e+02    3.6208e+02 ;    C24 - C25  - H38      CT -   CT - HC  
    37     38     85      1 ;    1.0968e+02    3.6208e+02 ;    C24 - C25  - H39      CT -   CT - HC  
    37     39     86      1 ;    1.0968e+02    3.6208e+02 ;    C24 - C26  - H40      CT -   CT - HC  
    37     39     87      1 ;    1.0968e+02    3.6208e+02 ;    C24 - C26  - H41      CT -   CT - HC  
    37     39     88      1 ;    1.0968e+02    3.6208e+02 ;    C24 - C26  - H42      CT -   CT - HC  
    38     37     39      1 ;    1.1263e+02    5.0099e+02 ;    C25 - C24  - C26      CT -   CT - CT  
    38     37     82      1 ;    1.0968e+02    3.6208e+02 ;    C25 - C24  - H36      CT -   CT - HC  
    39     37     82      1 ;    1.0968e+02    3.6208e+02 ;    C26 - C24  - H36      CT -   CT - HC  
    40     17     50      1 ;    1.0959e+02    3.6217e+02 ;    C27 - C4   - H4       CT -   CT - HC  
    40     41     90      1 ;    1.0968e+02    3.6208e+02 ;    C27 - C28  - H44      CT -   CT - HC  
    40     41     91      1 ;    1.0968e+02    3.6208e+02 ;    C27 - C28  - H45      CT -   CT - HC  
    40     41     92      1 ;    1.0968e+02    3.6208e+02 ;    C27 - C28  - H46      CT -   CT - HC  
    40     42     93      1 ;    1.0968e+02    3.6208e+02 ;    C27 - C29  - H47      CT -   CT - HC  
    40     42     94      1 ;    1.0968e+02    3.6208e+02 ;    C27 - C29  - H48      CT -   CT - HC  
    40     42     95      1 ;    1.0968e+02    3.6208e+02 ;    C27 - C29  - H49      CT -   CT - HC  
    41     40     42      1 ;    1.1263e+02    5.0099e+02 ;    C28 - C27  - C29      CT -   CT - CT  
    41     40     89      1 ;    1.0968e+02    3.6208e+02 ;    C28 - C27  - H43      CT -   CT - HC  
    42     40     89      1 ;    1.0968e+02    3.6208e+02 ;    C29 - C27  - H43      CT -   CT - HC  
    43     15     48      1 ;    1.0959e+02    3.6217e+02 ;    C30 - C2   - H2       CT -   CT - HC  
    43     44     97      1 ;    1.0968e+02    3.6208e+02 ;    C30 - C31  - H51      CT -   CT - HC  
    43     44     98      1 ;    1.0968e+02    3.6208e+02 ;    C30 - C31  - H52      CT -   CT - HC  
    43     44     99      1 ;    1.0968e+02    3.6208e+02 ;    C30 - C31  - H53      CT -   CT - HC  
    43     45    100      1 ;    1.0968e+02    3.6208e+02 ;    C30 - C32  - H54      CT -   CT - HC  
    43     45    101      1 ;    1.0968e+02    3.6208e+02 ;    C30 - C32  - H55      CT -   CT - HC  
    43     45    102      1 ;    1.0968e+02    3.6208e+02 ;    C30 - C32  - H56      CT -   CT - HC  
    44     43     45      1 ;    1.1263e+02    5.0099e+02 ;    C31 - C30  - C32      CT -   CT - CT  
    44     43     96      1 ;    1.0968e+02    3.6208e+02 ;    C31 - C30  - H50      CT -   CT - HC  
    45     43     96      1 ;    1.0968e+02    3.6208e+02 ;    C32 - C30  - H50      CT -   CT - HC  
    52     25     53      1 ;    1.0855e+02    2.9824e+02 ;     H6 - C12  - H7       HC -   CT - HC  
    52     25     54      1 ;    1.0855e+02    2.9824e+02 ;     H6 - C12  - H8       HC -   CT - HC  
    53     25     54      1 ;    1.0855e+02    2.9824e+02 ;     H7 - C12  - H8       HC -   CT - HC  
    55     26     56      1 ;    1.0855e+02    2.9824e+02 ;     H9 - C13  - H10      HC -   CT - HC  
    55     26     57      1 ;    1.0855e+02    2.9824e+02 ;     H9 - C13  - H11      HC -   CT - HC  
    56     26     57      1 ;    1.0855e+02    2.9824e+02 ;    H10 - C13  - H11      HC -   CT - HC  
    58     27     59      1 ;    1.0855e+02    2.9824e+02 ;    H12 - C14  - H13      HC -   CT - HC  
    58     27     60      1 ;    1.0855e+02    2.9824e+02 ;    H12 - C14  - H14      HC -   CT - HC  
    59     27     60      1 ;    1.0855e+02    2.9824e+02 ;    H13 - C14  - H14      HC -   CT - HC  
    62     29     63      1 ;    1.0773e+02    2.9957e+02 ;    H16 - C16  - H17      HC -   CT - HC  
    62     29     64      1 ;    1.0773e+02    2.9957e+02 ;    H16 - C16  - H18      HC -   CT - HC  
    63     29     64      1 ;    1.0773e+02    2.9957e+02 ;    H17 - C16  - H18      HC -   CT - HC  
    65     30     66      1 ;    1.0773e+02    2.9957e+02 ;    H19 - C17  - H20      HC -   CT - HC  
    65     30     67      1 ;    1.0773e+02    2.9957e+02 ;    H19 - C17  - H21      HC -   CT - HC  
    66     30     67      1 ;    1.0773e+02    2.9957e+02 ;    H20 - C17  - H21      HC -   CT - HC  
    69     32     70      1 ;    1.0773e+02    2.9957e+02 ;    H23 - C19  - H24      HC -   CT - HC  
    69     32     71      1 ;    1.0773e+02    2.9957e+02 ;    H23 - C19  - H25      HC -   CT - HC  
    70     32     71      1 ;    1.0773e+02    2.9957e+02 ;    H24 - C19  - H25      HC -   CT - HC  
    72     33     73      1 ;    1.0773e+02    2.9957e+02 ;    H26 - C20  - H27      HC -   CT - HC  
    72     33     74      1 ;    1.0773e+02    2.9957e+02 ;    H26 - C20  - H28      HC -   CT - HC  
    73     33     74      1 ;    1.0773e+02    2.9957e+02 ;    H27 - C20  - H28      HC -   CT - HC  
    76     35     77      1 ;    1.0773e+02    2.9957e+02 ;    H30 - C22  - H31      HC -   CT - HC  
    76     35     78      1 ;    1.0773e+02    2.9957e+02 ;    H30 - C22  - H32      HC -   CT - HC  
    77     35     78      1 ;    1.0773e+02    2.9957e+02 ;    H31 - C22  - H32      HC -   CT - HC  
    79     36     80      1 ;    1.0773e+02    2.9957e+02 ;    H33 - C23  - H34      HC -   CT - HC  
    79     36     81      1 ;    1.0773e+02    2.9957e+02 ;    H33 - C23  - H35      HC -   CT - HC  
    80     36     81      1 ;    1.0773e+02    2.9957e+02 ;    H34 - C23  - H35      HC -   CT - HC  
    83     38     84      1 ;    1.0773e+02    2.9957e+02 ;    H37 - C25  - H38      HC -   CT - HC  
    83     38     85      1 ;    1.0773e+02    2.9957e+02 ;    H37 - C25  - H39      HC -   CT - HC  
    84     38     85      1 ;    1.0773e+02    2.9957e+02 ;    H38 - C25  - H39      HC -   CT - HC  
    86     39     87      1 ;    1.0773e+02    2.9957e+02 ;    H40 - C26  - H41      HC -   CT - HC  
    86     39     88      1 ;    1.0773e+02    2.9957e+02 ;    H40 - C26  - H42      HC -   CT - HC  
    87     39     88      1 ;    1.0773e+02    2.9957e+02 ;    H41 - C26  - H42      HC -   CT - HC  
    90     41     91      1 ;    1.0773e+02    2.9957e+02 ;    H44 - C28  - H45      HC -   CT - HC  
    90     41     92      1 ;    1.0773e+02    2.9957e+02 ;    H44 - C28  - H46      HC -   CT - HC  
    91     41     92      1 ;    1.0773e+02    2.9957e+02 ;    H45 - C28  - H46      HC -   CT - HC  
    93     42     94      1 ;    1.0773e+02    2.9957e+02 ;    H47 - C29  - H48      HC -   CT - HC  
    93     42     95      1 ;    1.0773e+02    2.9957e+02 ;    H47 - C29  - H49      HC -   CT - HC  
    94     42     95      1 ;    1.0773e+02    2.9957e+02 ;    H48 - C29  - H49      HC -   CT - HC  
    97     44     98      1 ;    1.0773e+02    2.9957e+02 ;    H51 - C31  - H52      HC -   CT - HC  
    97     44     99      1 ;    1.0773e+02    2.9957e+02 ;    H51 - C31  - H53      HC -   CT - HC  
    98     44     99      1 ;    1.0773e+02    2.9957e+02 ;    H52 - C31  - H53      HC -   CT - HC  
   100     45    101      1 ;    1.0773e+02    2.9957e+02 ;    H54 - C32  - H55      HC -   CT - HC  
   100     45    102      1 ;    1.0773e+02    2.9957e+02 ;    H54 - C32  - H56      HC -   CT - HC  
   101     45    102      1 ;    1.0773e+02    2.9957e+02 ;    H55 - C32  - H56      HC -   CT - HC  

[ dihedrals ] ; propers
; for gromacs 4.5 or higher, using funct 9
;    i      j      k      l   func   phase     kd      pn
     1     16     19      4      9 ;   180.00   0.00000   1 ;      O-    C3-    C6-    O3
     1     16     19      4      9 ;   180.00   0.87864   3 ;      O-    C3-    C6-    O3
     1     16     19      4      9 ;   180.00   4.47688   2 ;      O-    C3-    C6-    O3
     1     16     19     10      9 ;   180.00   0.00000   2 ;      O-    C3-    C6-     N
     1     16     28     29      9 ;     0.00   0.65084   3 ;      O-    C3-   C15-   C16
     1     16     28     30      9 ;     0.00   0.65084   3 ;      O-    C3-   C15-   C17
     1     16     28     61      9 ;     0.00   0.00000   0 ;      O-    C3-   C15-   H15
     1     16     28     61      9 ;     0.00   1.04600   1 ;      O-    C3-   C15-   H15
     1     22     14     11      9 ;   180.00   0.00000   2 ;      O-    C9-    C1-    N1
     1     22     14     31      9 ;   180.00   0.00000   2 ;      O-    C9-    C1-   C18
     1     22     14     47      9 ;   180.00   0.00000   2 ;      O-    C9-    C1-    H1
     2     17     21      6      9 ;   180.00   0.00000   1 ;     O1-    C4-    C8-    O5
     2     17     21      6      9 ;   180.00   0.87864   3 ;     O1-    C4-    C8-    O5
     2     17     21      6      9 ;   180.00   4.47688   2 ;     O1-    C4-    C8-    O5
     2     17     21     12      9 ;   180.00   0.00000   2 ;     O1-    C4-    C8-    N2
     2     17     40     41      9 ;     0.00   0.65084   3 ;     O1-    C4-   C27-   C28
     2     17     40     42      9 ;     0.00   0.65084   3 ;     O1-    C4-   C27-   C29
     2     17     40     89      9 ;     0.00   0.00000   0 ;     O1-    C4-   C27-   H43
     2     17     40     89      9 ;     0.00   1.04600   1 ;     O1-    C4-   C27-   H43
     2     23     13     10      9 ;   180.00   0.00000   2 ;     O1-   C10-     C-     N
     2     23     13     34      9 ;   180.00   0.00000   2 ;     O1-   C10-     C-   C21
     2     23     13     46      9 ;   180.00   0.00000   2 ;     O1-   C10-     C-     H
     3     18     20      5      9 ;   180.00   0.00000   1 ;     O2-    C5-    C7-    O4
     3     18     20      5      9 ;   180.00   0.87864   3 ;     O2-    C5-    C7-    O4
     3     18     20      5      9 ;   180.00   4.47688   2 ;     O2-    C5-    C7-    O4
     3     18     20     11      9 ;   180.00   0.00000   2 ;     O2-    C5-    C7-    N1
     3     18     37     38      9 ;     0.00   0.65084   3 ;     O2-    C5-   C24-   C25
     3     18     37     39      9 ;     0.00   0.65084   3 ;     O2-    C5-   C24-   C26
     3     18     37     82      9 ;     0.00   0.00000   0 ;     O2-    C5-   C24-   H36
     3     18     37     82      9 ;     0.00   1.04600   1 ;     O2-    C5-   C24-   H36
     3     24     15     12      9 ;   180.00   0.00000   2 ;     O2-   C11-    C2-    N2
     3     24     15     43      9 ;   180.00   0.00000   2 ;     O2-   C11-    C2-   C30
     3     24     15     48      9 ;   180.00   0.00000   2 ;     O2-   C11-    C2-    H2
     4     19     10     13      9 ;   180.00  10.46000   2 ;     O3-    C6-     N-     C
     4     19     10     25      9 ;   180.00  10.46000   2 ;     O3-    C6-     N-   C12
     4     19     16     28      9 ;     0.00   2.84512   1 ;     O3-    C6-    C3-   C15
     4     19     16     28      9 ;   180.00   0.83680   2 ;     O3-    C6-    C3-   C15
     4     19     16     28      9 ;   180.00   1.84096   3 ;     O3-    C6-    C3-   C15
     4     19     16     49      9 ;     0.00   3.34720   1 ;     O3-    C6-    C3-    H3
     4     19     16     49      9 ;   180.00   0.33472   3 ;     O3-    C6-    C3-    H3
     5     20     11     14      9 ;   180.00  10.46000   2 ;     O4-    C7-    N1-    C1
     5     20     11     26      9 ;   180.00  10.46000   2 ;     O4-    C7-    N1-   C13
     5     20     18     37      9 ;     0.00   2.84512   1 ;     O4-    C7-    C5-   C24
     5     20     18     37      9 ;   180.00   0.83680   2 ;     O4-    C7-    C5-   C24
     5     20     18     37      9 ;   180.00   1.84096   3 ;     O4-    C7-    C5-   C24
     5     20     18     51      9 ;     0.00   3.34720   1 ;     O4-    C7-    C5-    H5
     5     20     18     51      9 ;   180.00   0.33472   3 ;     O4-    C7-    C5-    H5
     6     21     12     15      9 ;   180.00  10.46000   2 ;     O5-    C8-    N2-    C2
     6     21     12     27      9 ;   180.00  10.46000   2 ;     O5-    C8-    N2-   C14
     6     21     17     40      9 ;     0.00   2.84512   1 ;     O5-    C8-    C4-   C27
     6     21     17     40      9 ;   180.00   0.83680   2 ;     O5-    C8-    C4-   C27
     6     21     17     40      9 ;   180.00   1.84096   3 ;     O5-    C8-    C4-   C27
     6     21     17     50      9 ;     0.00   3.34720   1 ;     O5-    C8-    C4-    H4
     6     21     17     50      9 ;   180.00   0.33472   3 ;     O5-    C8-    C4-    H4
     7     22     14     11      9 ;   180.00   0.00000   2 ;     O6-    C9-    C1-    N1
     7     22     14     31      9 ;     0.00   2.84512   1 ;     O6-    C9-    C1-   C18
     7     22     14     31      9 ;   180.00   0.83680   2 ;     O6-    C9-    C1-   C18
     7     22     14     31      9 ;   180.00   1.84096   3 ;     O6-    C9-    C1-   C18
     7     22     14     47      9 ;     0.00   3.34720   1 ;     O6-    C9-    C1-    H1
     7     22     14     47      9 ;   180.00   0.33472   3 ;     O6-    C9-    C1-    H1
     8     23      2     17      9 ;   180.00   5.85760   1 ;     O7-   C10-    O1-    C4
     8     23      2     17      9 ;   180.00  11.29680   2 ;     O7-   C10-    O1-    C4
     8     23     13     10      9 ;   180.00   0.00000   2 ;     O7-   C10-     C-     N
     8     23     13     34      9 ;     0.00   2.84512   1 ;     O7-   C10-     C-   C21
     8     23     13     34      9 ;   180.00   0.83680   2 ;     O7-   C10-     C-   C21
     8     23     13     34      9 ;   180.00   1.84096   3 ;     O7-   C10-     C-   C21
     8     23     13     46      9 ;     0.00   3.34720   1 ;     O7-   C10-     C-     H
     8     23     13     46      9 ;   180.00   0.33472   3 ;     O7-   C10-     C-     H
     9     24      3     18      9 ;   180.00   5.85760   1 ;     O8-   C11-    O2-    C5
     9     24      3     18      9 ;   180.00  11.29680   2 ;     O8-   C11-    O2-    C5
     9     24     15     12      9 ;   180.00   0.00000   2 ;     O8-   C11-    C2-    N2
     9     24     15     43      9 ;     0.00   2.84512   1 ;     O8-   C11-    C2-   C30
     9     24     15     43      9 ;   180.00   0.83680   2 ;     O8-   C11-    C2-   C30
     9     24     15     43      9 ;   180.00   1.84096   3 ;     O8-   C11-    C2-   C30
     9     24     15     48      9 ;     0.00   3.34720   1 ;     O8-   C11-    C2-    H2
     9     24     15     48      9 ;   180.00   0.33472   3 ;     O8-   C11-    C2-    H2
    10     13     34     35      9 ;     0.00   0.41840   3 ;      N-     C-   C21-   C22
    10     13     34     36      9 ;     0.00   0.41840   3 ;      N-     C-   C21-   C23
    10     13     34     75      9 ;     0.00   0.65084   3 ;      N-     C-   C21-   H29
    10     19     16     28      9 ;   180.00   0.00000   4 ;      N-    C6-    C3-   C15
    10     19     16     28      9 ;   180.00   2.97064   2 ;      N-    C6-    C3-   C15
    10     19     16     49      9 ;   180.00   0.00000   2 ;      N-    C6-    C3-    H3
    11     14     31     32      9 ;     0.00   0.41840   3 ;     N1-    C1-   C18-   C19
    11     14     31     33      9 ;     0.00   0.41840   3 ;     N1-    C1-   C18-   C20
    11     14     31     68      9 ;     0.00   0.65084   3 ;     N1-    C1-   C18-   H22
    11     20     18     37      9 ;   180.00   0.00000   4 ;     N1-    C7-    C5-   C24
    11     20     18     37      9 ;   180.00   2.97064   2 ;     N1-    C7-    C5-   C24
    11     20     18     51      9 ;   180.00   0.00000   2 ;     N1-    C7-    C5-    H5
    12     15     43     44      9 ;     0.00   0.41840   3 ;     N2-    C2-   C30-   C31
    12     15     43     45      9 ;     0.00   0.41840   3 ;     N2-    C2-   C30-   C32
    12     15     43     96      9 ;     0.00   0.65084   3 ;     N2-    C2-   C30-   H50
    12     21     17     40      9 ;   180.00   0.00000   4 ;     N2-    C8-    C4-   C27
    12     21     17     40      9 ;   180.00   2.97064   2 ;     N2-    C8-    C4-   C27
    12     21     17     50      9 ;   180.00   0.00000   2 ;     N2-    C8-    C4-    H4
    13     10     19     16      9 ;     0.00   2.09200   3 ;      C-     N-    C6-    C3
    13     10     19     16      9 ;     0.00  12.25912   1 ;      C-     N-    C6-    C3
    13     10     19     16      9 ;   180.00   5.89944   2 ;      C-     N-    C6-    C3
    13     10     25     52      9 ;     0.00   0.00000   0 ;      C-     N-   C12-    H6
    13     10     25     53      9 ;     0.00   0.00000   0 ;      C-     N-   C12-    H7
    13     10     25     54      9 ;     0.00   0.00000   0 ;      C-     N-   C12-    H8
    13     23      2     17      9 ;     0.00   3.13800   3 ;      C-   C10-    O1-    C4
    13     23      2     17      9 ;   180.00   7.90776   1 ;      C-   C10-    O1-    C4
    13     23      2     17      9 ;   180.00  13.76536   2 ;      C-   C10-    O1-    C4
    13     34     35     76      9 ;     0.00   0.54392   3 ;      C-   C21-   C22-   H30
    13     34     35     77      9 ;     0.00   0.54392   3 ;      C-   C21-   C22-   H31
    13     34     35     78      9 ;     0.00   0.54392   3 ;      C-   C21-   C22-   H32
    13     34     36     79      9 ;     0.00   0.54392   3 ;      C-   C21-   C23-   H33
    13     34     36     80      9 ;     0.00   0.54392   3 ;      C-   C21-   C23-   H34
    13     34     36     81      9 ;     0.00   0.54392   3 ;      C-   C21-   C23-   H35
    14     11     20     18      9 ;     0.00   2.09200   3 ;     C1-    N1-    C7-    C5
    14     11     20     18      9 ;     0.00  12.25912   1 ;     C1-    N1-    C7-    C5
    14     11     20     18      9 ;   180.00   5.89944   2 ;     C1-    N1-    C7-    C5
    14     11     26     55      9 ;     0.00   0.00000   0 ;     C1-    N1-   C13-    H9
    14     11     26     56      9 ;     0.00   0.00000   0 ;     C1-    N1-   C13-   H10
    14     11     26     57      9 ;     0.00   0.00000   0 ;     C1-    N1-   C13-   H11
    14     31     32     69      9 ;     0.00   0.54392   3 ;     C1-   C18-   C19-   H23
    14     31     32     70      9 ;     0.00   0.54392   3 ;     C1-   C18-   C19-   H24
    14     31     32     71      9 ;     0.00   0.54392   3 ;     C1-   C18-   C19-   H25
    14     31     33     72      9 ;     0.00   0.54392   3 ;     C1-   C18-   C20-   H26
    14     31     33     73      9 ;     0.00   0.54392   3 ;     C1-   C18-   C20-   H27
    14     31     33     74      9 ;     0.00   0.54392   3 ;     C1-   C18-   C20-   H28
    15     12     21     17      9 ;     0.00   2.09200   3 ;     C2-    N2-    C8-    C4
    15     12     21     17      9 ;     0.00  12.25912   1 ;     C2-    N2-    C8-    C4
    15     12     21     17      9 ;   180.00   5.89944   2 ;     C2-    N2-    C8-    C4
    15     12     27     58      9 ;     0.00   0.00000   0 ;     C2-    N2-   C14-   H12
    15     12     27     59      9 ;     0.00   0.00000   0 ;     C2-    N2-   C14-   H13
    15     12     27     60      9 ;     0.00   0.00000   0 ;     C2-    N2-   C14-   H14
    15     24      3     18      9 ;     0.00   3.13800   3 ;     C2-   C11-    O2-    C5
    15     24      3     18      9 ;   180.00   7.90776   1 ;     C2-   C11-    O2-    C5
    15     24      3     18      9 ;   180.00  13.76536   2 ;     C2-   C11-    O2-    C5
    15     43     44     97      9 ;     0.00   0.54392   3 ;     C2-   C30-   C31-   H51
    15     43     44     98      9 ;     0.00   0.54392   3 ;     C2-   C30-   C31-   H52
    15     43     44     99      9 ;     0.00   0.54392   3 ;     C2-   C30-   C31-   H53
    15     43     45    100      9 ;     0.00   0.54392   3 ;     C2-   C30-   C32-   H54
    15     43     45    101      9 ;     0.00   0.54392   3 ;     C2-   C30-   C32-   H55
    15     43     45    102      9 ;     0.00   0.54392   3 ;     C2-   C30-   C32-   H56
    16      1     22      7      9 ;   180.00   5.85760   1 ;     C3-     O-    C9-    O6
    16      1     22      7      9 ;   180.00  11.29680   2 ;     C3-     O-    C9-    O6
    16      1     22     14      9 ;     0.00   3.13800   3 ;     C3-     O-    C9-    C1
    16      1     22     14      9 ;   180.00   7.90776   1 ;     C3-     O-    C9-    C1
    16      1     22     14      9 ;   180.00  13.76536   2 ;     C3-     O-    C9-    C1
    16     19     10     25      9 ;     0.00   2.09200   3 ;     C3-    C6-     N-   C12
    16     19     10     25      9 ;     0.00  12.25912   1 ;     C3-    C6-     N-   C12
    16     19     10     25      9 ;   180.00   5.89944   2 ;     C3-    C6-     N-   C12
    16     28     29     62      9 ;     0.00   0.54392   3 ;     C3-   C15-   C16-   H16
    16     28     29     63      9 ;     0.00   0.54392   3 ;     C3-   C15-   C16-   H17
    16     28     29     64      9 ;     0.00   0.54392   3 ;     C3-   C15-   C16-   H18
    16     28     30     65      9 ;     0.00   0.54392   3 ;     C3-   C15-   C17-   H19
    16     28     30     66      9 ;     0.00   0.54392   3 ;     C3-   C15-   C17-   H20
    16     28     30     67      9 ;     0.00   0.54392   3 ;     C3-   C15-   C17-   H21
    17     21     12     27      9 ;     0.00   2.09200   3 ;     C4-    C8-    N2-   C14
    17     21     12     27      9 ;     0.00  12.25912   1 ;     C4-    C8-    N2-   C14
    17     21     12     27      9 ;   180.00   5.89944   2 ;     C4-    C8-    N2-   C14
    17     40     41     90      9 ;     0.00   0.54392   3 ;     C4-   C27-   C28-   H44
    17     40     41     91      9 ;     0.00   0.54392   3 ;     C4-   C27-   C28-   H45
    17     40     41     92      9 ;     0.00   0.54392   3 ;     C4-   C27-   C28-   H46
    17     40     42     93      9 ;     0.00   0.54392   3 ;     C4-   C27-   C29-   H47
    17     40     42     94      9 ;     0.00   0.54392   3 ;     C4-   C27-   C29-   H48
    17     40     42     95      9 ;     0.00   0.54392   3 ;     C4-   C27-   C29-   H49
    18     20     11     26      9 ;     0.00   2.09200   3 ;     C5-    C7-    N1-   C13
    18     20     11     26      9 ;     0.00  12.25912   1 ;     C5-    C7-    N1-   C13
    18     20     11     26      9 ;   180.00   5.89944   2 ;     C5-    C7-    N1-   C13
    18     37     38     83      9 ;     0.00   0.54392   3 ;     C5-   C24-   C25-   H37
    18     37     38     84      9 ;     0.00   0.54392   3 ;     C5-   C24-   C25-   H38
    18     37     38     85      9 ;     0.00   0.54392   3 ;     C5-   C24-   C25-   H39
    18     37     39     86      9 ;     0.00   0.54392   3 ;     C5-   C24-   C26-   H40
    18     37     39     87      9 ;     0.00   0.54392   3 ;     C5-   C24-   C26-   H41
    18     37     39     88      9 ;     0.00   0.54392   3 ;     C5-   C24-   C26-   H42
    19     10     13     23      9 ;     0.00   2.67776   1 ;     C6-     N-     C-   C10
    19     10     13     23      9 ;   180.00   1.63176   2 ;     C6-     N-     C-   C10
    19     10     13     34      9 ;     0.00   9.45584   1 ;     C6-     N-     C-   C21
    19     10     13     34      9 ;   180.00   0.12552   3 ;     C6-     N-     C-   C21
    19     10     13     34      9 ;   180.00   2.71960   4 ;     C6-     N-     C-   C21
    19     10     13     46      9 ;   180.00   0.00000   2 ;     C6-     N-     C-     H
    19     10     25     52      9 ;   180.00   0.00000   2 ;     C6-     N-   C12-    H6
    19     10     25     53      9 ;   180.00   0.00000   2 ;     C6-     N-   C12-    H7
    19     10     25     54      9 ;   180.00   0.00000   2 ;     C6-     N-   C12-    H8
    19     16     28     29      9 ;     0.00   0.00000   0 ;     C6-    C3-   C15-   C16
    19     16     28     29      9 ;     0.00   0.16736   2 ;     C6-    C3-   C15-   C16
    19     16     28     29      9 ;   180.00   1.92464   1 ;     C6-    C3-   C15-   C16
    19     16     28     30      9 ;     0.00   0.00000   0 ;     C6-    C3-   C15-   C17
    19     16     28     30      9 ;     0.00   0.16736   2 ;     C6-    C3-   C15-   C17
    19     16     28     30      9 ;   180.00   1.92464   1 ;     C6-    C3-   C15-   C17
    19     16     28     61      9 ;     0.00   0.65084   3 ;     C6-    C3-   C15-   H15
    20     11     14     22      9 ;     0.00   2.67776   1 ;     C7-    N1-    C1-    C9
    20     11     14     22      9 ;   180.00   1.63176   2 ;     C7-    N1-    C1-    C9
    20     11     14     31      9 ;     0.00   9.45584   1 ;     C7-    N1-    C1-   C18
    20     11     14     31      9 ;   180.00   0.12552   3 ;     C7-    N1-    C1-   C18
    20     11     14     31      9 ;   180.00   2.71960   4 ;     C7-    N1-    C1-   C18
    20     11     14     47      9 ;   180.00   0.00000   2 ;     C7-    N1-    C1-    H1
    20     11     26     55      9 ;   180.00   0.00000   2 ;     C7-    N1-   C13-    H9
    20     11     26     56      9 ;   180.00   0.00000   2 ;     C7-    N1-   C13-   H10
    20     11     26     57      9 ;   180.00   0.00000   2 ;     C7-    N1-   C13-   H11
    20     18      3     24      9 ;     0.00   1.60387   3 ;     C7-    C5-    O2-   C11
    20     18     37     38      9 ;     0.00   0.00000   0 ;     C7-    C5-   C24-   C25
    20     18     37     38      9 ;     0.00   0.16736   2 ;     C7-    C5-   C24-   C25
    20     18     37     38      9 ;   180.00   1.92464   1 ;     C7-    C5-   C24-   C25
    20     18     37     39      9 ;     0.00   0.00000   0 ;     C7-    C5-   C24-   C26
    20     18     37     39      9 ;     0.00   0.16736   2 ;     C7-    C5-   C24-   C26
    20     18     37     39      9 ;   180.00   1.92464   1 ;     C7-    C5-   C24-   C26
    20     18     37     82      9 ;     0.00   0.65084   3 ;     C7-    C5-   C24-   H36
    21     12     15     24      9 ;     0.00   2.67776   1 ;     C8-    N2-    C2-   C11
    21     12     15     24      9 ;   180.00   1.63176   2 ;     C8-    N2-    C2-   C11
    21     12     15     43      9 ;     0.00   9.45584   1 ;     C8-    N2-    C2-   C30
    21     12     15     43      9 ;   180.00   0.12552   3 ;     C8-    N2-    C2-   C30
    21     12     15     43      9 ;   180.00   2.71960   4 ;     C8-    N2-    C2-   C30
    21     12     15     48      9 ;   180.00   0.00000   2 ;     C8-    N2-    C2-    H2
    21     12     27     58      9 ;   180.00   0.00000   2 ;     C8-    N2-   C14-   H12
    21     12     27     59      9 ;   180.00   0.00000   2 ;     C8-    N2-   C14-   H13
    21     12     27     60      9 ;   180.00   0.00000   2 ;     C8-    N2-   C14-   H14
    21     17      2     23      9 ;     0.00   1.60387   3 ;     C8-    C4-    O1-   C10
    21     17     40     41      9 ;     0.00   0.00000   0 ;     C8-    C4-   C27-   C28
    21     17     40     41      9 ;     0.00   0.16736   2 ;     C8-    C4-   C27-   C28
    21     17     40     41      9 ;   180.00   1.92464   1 ;     C8-    C4-   C27-   C28
    21     17     40     42      9 ;     0.00   0.00000   0 ;     C8-    C4-   C27-   C29
    21     17     40     42      9 ;     0.00   0.16736   2 ;     C8-    C4-   C27-   C29
    21     17     40     42      9 ;   180.00   1.92464   1 ;     C8-    C4-   C27-   C29
    21     17     40     89      9 ;     0.00   0.65084   3 ;     C8-    C4-   C27-   H43
    22      1     16     19      9 ;     0.00   1.60387   3 ;     C9-     O-    C3-    C6
    22      1     16     28      9 ;     0.00   1.60247   3 ;     C9-     O-    C3-   C15
    22      1     16     28      9 ;   180.00   3.34720   1 ;     C9-     O-    C3-   C15
    22      1     16     49      9 ;     0.00   1.60387   3 ;     C9-     O-    C3-    H3
    22     14     11     26      9 ;     0.00   0.00000   0 ;     C9-    C1-    N1-   C13
    22     14     31     32      9 ;     0.00   0.00000   0 ;     C9-    C1-   C18-   C19
    22     14     31     32      9 ;     0.00   0.16736   2 ;     C9-    C1-   C18-   C19
    22     14     31     32      9 ;   180.00   1.92464   1 ;     C9-    C1-   C18-   C19
    22     14     31     33      9 ;     0.00   0.00000   0 ;     C9-    C1-   C18-   C20
    22     14     31     33      9 ;     0.00   0.16736   2 ;     C9-    C1-   C18-   C20
    22     14     31     33      9 ;   180.00   1.92464   1 ;     C9-    C1-   C18-   C20
    22     14     31     68      9 ;     0.00   0.65084   3 ;     C9-    C1-   C18-   H22
    23      2     17     40      9 ;     0.00   1.60247   3 ;    C10-    O1-    C4-   C27
    23      2     17     40      9 ;   180.00   3.34720   1 ;    C10-    O1-    C4-   C27
    23      2     17     50      9 ;     0.00   1.60387   3 ;    C10-    O1-    C4-    H4
    23     13     10     25      9 ;     0.00   0.00000   0 ;    C10-     C-     N-   C12
    23     13     34     35      9 ;     0.00   0.00000   0 ;    C10-     C-   C21-   C22
    23     13     34     35      9 ;     0.00   0.16736   2 ;    C10-     C-   C21-   C22
    23     13     34     35      9 ;   180.00   1.92464   1 ;    C10-     C-   C21-   C22
    23     13     34     36      9 ;     0.00   0.00000   0 ;    C10-     C-   C21-   C23
    23     13     34     36      9 ;     0.00   0.16736   2 ;    C10-     C-   C21-   C23
    23     13     34     36      9 ;   180.00   1.92464   1 ;    C10-     C-   C21-   C23
    23     13     34     75      9 ;     0.00   0.65084   3 ;    C10-     C-   C21-   H29
    24      3     18     37      9 ;     0.00   1.60247   3 ;    C11-    O2-    C5-   C24
    24      3     18     37      9 ;   180.00   3.34720   1 ;    C11-    O2-    C5-   C24
    24      3     18     51      9 ;     0.00   1.60387   3 ;    C11-    O2-    C5-    H5
    24     15     12     27      9 ;     0.00   0.00000   0 ;    C11-    C2-    N2-   C14
    24     15     43     44      9 ;     0.00   0.00000   0 ;    C11-    C2-   C30-   C31
    24     15     43     44      9 ;     0.00   0.16736   2 ;    C11-    C2-   C30-   C31
    24     15     43     44      9 ;   180.00   1.92464   1 ;    C11-    C2-   C30-   C31
    24     15     43     45      9 ;     0.00   0.00000   0 ;    C11-    C2-   C30-   C32
    24     15     43     45      9 ;     0.00   0.16736   2 ;    C11-    C2-   C30-   C32
    24     15     43     45      9 ;   180.00   1.92464   1 ;    C11-    C2-   C30-   C32
    24     15     43     96      9 ;     0.00   0.65084   3 ;    C11-    C2-   C30-   H50
    25     10     13     34      9 ;     0.00   0.00000   0 ;    C12-     N-     C-   C21
    25     10     13     46      9 ;     0.00   0.00000   0 ;    C12-     N-     C-     H
    26     11     14     31      9 ;     0.00   0.00000   0 ;    C13-    N1-    C1-   C18
    26     11     14     47      9 ;     0.00   0.00000   0 ;    C13-    N1-    C1-    H1
    27     12     15     43      9 ;     0.00   0.00000   0 ;    C14-    N2-    C2-   C30
    27     12     15     48      9 ;     0.00   0.00000   0 ;    C14-    N2-    C2-    H2
    29     28     16     49      9 ;     0.00   0.65084   3 ;    C16-   C15-    C3-    H3
    29     28     30     65      9 ;     0.00   0.54392   3 ;    C16-   C15-   C17-   H19
    29     28     30     66      9 ;     0.00   0.54392   3 ;    C16-   C15-   C17-   H20
    29     28     30     67      9 ;     0.00   0.54392   3 ;    C16-   C15-   C17-   H21
    30     28     16     49      9 ;     0.00   0.65084   3 ;    C17-   C15-    C3-    H3
    30     28     29     62      9 ;     0.00   0.54392   3 ;    C17-   C15-   C16-   H16
    30     28     29     63      9 ;     0.00   0.54392   3 ;    C17-   C15-   C16-   H17
    30     28     29     64      9 ;     0.00   0.54392   3 ;    C17-   C15-   C16-   H18
    32     31     14     47      9 ;     0.00   0.65084   3 ;    C19-   C18-    C1-    H1
    32     31     33     72      9 ;     0.00   0.54392   3 ;    C19-   C18-   C20-   H26
    32     31     33     73      9 ;     0.00   0.54392   3 ;    C19-   C18-   C20-   H27
    32     31     33     74      9 ;     0.00   0.54392   3 ;    C19-   C18-   C20-   H28
    33     31     14     47      9 ;     0.00   0.65084   3 ;    C20-   C18-    C1-    H1
    33     31     32     69      9 ;     0.00   0.54392   3 ;    C20-   C18-   C19-   H23
    33     31     32     70      9 ;     0.00   0.54392   3 ;    C20-   C18-   C19-   H24
    33     31     32     71      9 ;     0.00   0.54392   3 ;    C20-   C18-   C19-   H25
    35     34     13     46      9 ;     0.00   0.65084   3 ;    C22-   C21-     C-     H
    35     34     36     79      9 ;     0.00   0.54392   3 ;    C22-   C21-   C23-   H33
    35     34     36     80      9 ;     0.00   0.54392   3 ;    C22-   C21-   C23-   H34
    35     34     36     81      9 ;     0.00   0.54392   3 ;    C22-   C21-   C23-   H35
    36     34     13     46      9 ;     0.00   0.65084   3 ;    C23-   C21-     C-     H
    36     34     35     76      9 ;     0.00   0.54392   3 ;    C23-   C21-   C22-   H30
    36     34     35     77      9 ;     0.00   0.54392   3 ;    C23-   C21-   C22-   H31
    36     34     35     78      9 ;     0.00   0.54392   3 ;    C23-   C21-   C22-   H32
    38     37     18     51      9 ;     0.00   0.65084   3 ;    C25-   C24-    C5-    H5
    38     37     39     86      9 ;     0.00   0.54392   3 ;    C25-   C24-   C26-   H40
    38     37     39     87      9 ;     0.00   0.54392   3 ;    C25-   C24-   C26-   H41
    38     37     39     88      9 ;     0.00   0.54392   3 ;    C25-   C24-   C26-   H42
    39     37     18     51      9 ;     0.00   0.65084   3 ;    C26-   C24-    C5-    H5
    39     37     38     83      9 ;     0.00   0.54392   3 ;    C26-   C24-   C25-   H37
    39     37     38     84      9 ;     0.00   0.54392   3 ;    C26-   C24-   C25-   H38
    39     37     38     85      9 ;     0.00   0.54392   3 ;    C26-   C24-   C25-   H39
    41     40     17     50      9 ;     0.00   0.65084   3 ;    C28-   C27-    C4-    H4
    41     40     42     93      9 ;     0.00   0.54392   3 ;    C28-   C27-   C29-   H47
    41     40     42     94      9 ;     0.00   0.54392   3 ;    C28-   C27-   C29-   H48
    41     40     42     95      9 ;     0.00   0.54392   3 ;    C28-   C27-   C29-   H49
    42     40     17     50      9 ;     0.00   0.65084   3 ;    C29-   C27-    C4-    H4
    42     40     41     90      9 ;     0.00   0.54392   3 ;    C29-   C27-   C28-   H44
    42     40     41     91      9 ;     0.00   0.54392   3 ;    C29-   C27-   C28-   H45
    42     40     41     92      9 ;     0.00   0.54392   3 ;    C29-   C27-   C28-   H46
    44     43     15     48      9 ;     0.00   0.65084   3 ;    C31-   C30-    C2-    H2
    44     43     45    100      9 ;     0.00   0.54392   3 ;    C31-   C30-   C32-   H54
    44     43     45    101      9 ;     0.00   0.54392   3 ;    C31-   C30-   C32-   H55
    44     43     45    102      9 ;     0.00   0.54392   3 ;    C31-   C30-   C32-   H56
    45     43     15     48      9 ;     0.00   0.65084   3 ;    C32-   C30-    C2-    H2
    45     43     44     97      9 ;     0.00   0.54392   3 ;    C32-   C30-   C31-   H51
    45     43     44     98      9 ;     0.00   0.54392   3 ;    C32-   C30-   C31-   H52
    45     43     44     99      9 ;     0.00   0.54392   3 ;    C32-   C30-   C31-   H53
    46     13     34     75      9 ;     0.00   0.65084   3 ;      H-     C-   C21-   H29
    47     14     31     68      9 ;     0.00   0.65084   3 ;     H1-    C1-   C18-   H22
    48     15     43     96      9 ;     0.00   0.65084   3 ;     H2-    C2-   C30-   H50
    49     16     28     61      9 ;     0.00   0.65084   3 ;     H3-    C3-   C15-   H15
    50     17     40     89      9 ;     0.00   0.65084   3 ;     H4-    C4-   C27-   H43
    51     18     37     82      9 ;     0.00   0.65084   3 ;     H5-    C5-   C24-   H36
    61     28     29     62      9 ;     0.00   0.50208   3 ;    H15-   C15-   C16-   H16
    61     28     29     63      9 ;     0.00   0.50208   3 ;    H15-   C15-   C16-   H17
    61     28     29     64      9 ;     0.00   0.50208   3 ;    H15-   C15-   C16-   H18
    61     28     30     65      9 ;     0.00   0.50208   3 ;    H15-   C15-   C17-   H19
    61     28     30     66      9 ;     0.00   0.50208   3 ;    H15-   C15-   C17-   H20
    61     28     30     67      9 ;     0.00   0.50208   3 ;    H15-   C15-   C17-   H21
    68     31     32     69      9 ;     0.00   0.50208   3 ;    H22-   C18-   C19-   H23
    68     31     32     70      9 ;     0.00   0.50208   3 ;    H22-   C18-   C19-   H24
    68     31     32     71      9 ;     0.00   0.50208   3 ;    H22-   C18-   C19-   H25
    68     31     33     72      9 ;     0.00   0.50208   3 ;    H22-   C18-   C20-   H26
    68     31     33     73      9 ;     0.00   0.50208   3 ;    H22-   C18-   C20-   H27
    68     31     33     74      9 ;     0.00   0.50208   3 ;    H22-   C18-   C20-   H28
    75     34     35     76      9 ;     0.00   0.50208   3 ;    H29-   C21-   C22-   H30
    75     34     35     77      9 ;     0.00   0.50208   3 ;    H29-   C21-   C22-   H31
    75     34     35     78      9 ;     0.00   0.50208   3 ;    H29-   C21-   C22-   H32
    75     34     36     79      9 ;     0.00   0.50208   3 ;    H29-   C21-   C23-   H33
    75     34     36     80      9 ;     0.00   0.50208   3 ;    H29-   C21-   C23-   H34
    75     34     36     81      9 ;     0.00   0.50208   3 ;    H29-   C21-   C23-   H35
    82     37     38     83      9 ;     0.00   0.50208   3 ;    H36-   C24-   C25-   H37
    82     37     38     84      9 ;     0.00   0.50208   3 ;    H36-   C24-   C25-   H38
    82     37     38     85      9 ;     0.00   0.50208   3 ;    H36-   C24-   C25-   H39
    82     37     39     86      9 ;     0.00   0.50208   3 ;    H36-   C24-   C26-   H40
    82     37     39     87      9 ;     0.00   0.50208   3 ;    H36-   C24-   C26-   H41
    82     37     39     88      9 ;     0.00   0.50208   3 ;    H36-   C24-   C26-   H42
    89     40     41     90      9 ;     0.00   0.50208   3 ;    H43-   C27-   C28-   H44
    89     40     41     91      9 ;     0.00   0.50208   3 ;    H43-   C27-   C28-   H45
    89     40     41     92      9 ;     0.00   0.50208   3 ;    H43-   C27-   C28-   H46
    89     40     42     93      9 ;     0.00   0.50208   3 ;    H43-   C27-   C29-   H47
    89     40     42     94      9 ;     0.00   0.50208   3 ;    H43-   C27-   C29-   H48
    89     40     42     95      9 ;     0.00   0.50208   3 ;    H43-   C27-   C29-   H49
    96     43     44     97      9 ;     0.00   0.50208   3 ;    H50-   C30-   C31-   H51
    96     43     44     98      9 ;     0.00   0.50208   3 ;    H50-   C30-   C31-   H52
    96     43     44     99      9 ;     0.00   0.50208   3 ;    H50-   C30-   C31-   H53
    96     43     45    100      9 ;     0.00   0.50208   3 ;    H50-   C30-   C32-   H54
    96     43     45    101      9 ;     0.00   0.50208   3 ;    H50-   C30-   C32-   H55
    96     43     45    102      9 ;     0.00   0.50208   3 ;    H50-   C30-   C32-   H56

[ dihedrals ] ; impropers
; treated as propers in GROMACS to use correct AMBER analytical function
;    i      j      k      l   func   phase     kd      pn
     1     22      7     14      4 ;   180.00   4.60240   2 ;      O-    C9-    O6-    C1
    13      8     23      2      4 ;   180.00   4.60240   2 ;      C-    O7-   C10-    O1
    15      9     24      3      4 ;   180.00   4.60240   2 ;     C2-    O8-   C11-    O2
    16     10     19      4      4 ;   180.00  43.93200   2 ;     C3-     N-    C6-    O3
    17     12     21      6      4 ;   180.00  43.93200   2 ;     C4-    N2-    C8-    O5
    18     11     20      5      4 ;   180.00  43.93200   2 ;     C5-    N1-    C7-    O4
    19     13     10     25      4 ;   180.00   4.60240   2 ;     C6-     C-     N-   C12
    20     14     11     26      4 ;   180.00   4.60240   2 ;     C7-    C1-    N1-   C13
    21     15     12     27      4 ;   180.00   4.60240   2 ;     C8-    C2-    N2-   C14
