; h2eb_GMX_OPLS.top created by acpype (v: 2023.10.27) on Thu Sep  4 07:59:47 2025

; Include forcefield parameters
#include "ffoplsaa.itp"

; Include h2eb_GMX.itp topology
#include "h2eb_GMX.itp"

; Ligand position restraints
#ifdef POSRES_LIG
#include "posre_h2eb.itp"
#endif

[ system ]
 h2eb

[ molecules ]
; Compound        nmols
 h2eb             1     
