; h1ea_GMX_OPLS.itp created by acpype (v: 2023.10.27) on Thu Sep  4 01:40:55 2025

; For OPLS atomtypes manual fine tuning
; AC_at:OPLS_at:OPLScode: Possible_Alternatives (see ffoplsaa.atp and ffoplsaanb.itp)
; os:x:opls_x: []
; o:O:opls_236: ['272']
; n:N:opls_237: ['238', '239']
; c3:CT:opls_135: ['136', '137', '149', '157', '158', '206', '209', '210', '223B', '224B', '245', '246', '274', '283', '284', '285', '292', '292B', '293B', '296', '307', '308', '505']
; c:C:opls_235: ['271']
; h1:HC:opls_140: []
; hc:HC:opls_140: []

[ moleculetype ]
;name            nrexcl
 h1ea             3

[ atoms ]
;   nr  type  resi  res  atom  cgnr     charge      mass       ; qtot   bond_type
     1 opls_x     1   UNL     O    1    -0.424567      0.00000 ; qtot -0.425  x   
     2 opls_x     1   UNL    O1    2    -0.424567      0.00000 ; qtot -0.849  x   
     3 opls_x     1   UNL    O2    3    -0.424567      0.00000 ; qtot -1.274  x   
     4 opls_236     1   UNL    O3    4    -0.575767     15.99940 ; qtot -1.849  O   
     5 opls_236     1   UNL    O4    5    -0.575767     15.99940 ; qtot -2.425  O   
     6 opls_236     1   UNL    O5    6    -0.575767     15.99940 ; qtot -3.001  O   
     7 opls_236     1   UNL    O6    7    -0.535000     15.99940 ; qtot -3.536  O   
     8 opls_236     1   UNL    O7    8    -0.535000     15.99940 ; qtot -4.071  O   
     9 opls_236     1   UNL    O8    9    -0.535000     15.99940 ; qtot -4.606  O   
    10 opls_237     1   UNL     N   10    -0.462133     14.00670 ; qtot -5.068  N   
    11 opls_237     1   UNL    N1   11    -0.462133     14.00670 ; qtot -5.530  N   
    12 opls_237     1   UNL    N2   12    -0.462133     14.00670 ; qtot -5.992  N   
    13 opls_135     1   UNL     C   13     0.063033     12.01100 ; qtot -5.929  CT  
    14 opls_135     1   UNL    C1   14     0.063033     12.01100 ; qtot -5.866  CT  
    15 opls_135     1   UNL    C2   15     0.063033     12.01100 ; qtot -5.803  CT  
    16 opls_135     1   UNL    C3   16     0.093433     12.01100 ; qtot -5.710  CT  
    17 opls_135     1   UNL    C4   17     0.093433     12.01100 ; qtot -5.616  CT  
    18 opls_135     1   UNL    C5   18     0.093433     12.01100 ; qtot -5.523  CT  
    19 opls_235     1   UNL    C6   19     0.649432     12.01100 ; qtot -4.874  C   
    20 opls_235     1   UNL    C7   20     0.649432     12.01100 ; qtot -4.224  C   
    21 opls_235     1   UNL    C8   21     0.649432     12.01100 ; qtot -3.575  C   
    22 opls_235     1   UNL    C9   22     0.617433     12.01100 ; qtot -2.957  C   
    23 opls_235     1   UNL   C10   23     0.617433     12.01100 ; qtot -2.340  C   
    24 opls_235     1   UNL   C11   24     0.617433     12.01100 ; qtot -1.722  C   
    25 opls_135     1   UNL   C12   25     0.060967     12.01100 ; qtot -1.661  CT  
    26 opls_135     1   UNL   C13   26     0.060967     12.01100 ; qtot -1.600  CT  
    27 opls_135     1   UNL   C14   27     0.060967     12.01100 ; qtot -1.540  CT  
    28 opls_135     1   UNL   C15   28    -0.070700     12.01100 ; qtot -1.610  CT  
    29 opls_135     1   UNL   C16   29    -0.096100     12.01100 ; qtot -1.706  CT  
    30 opls_135     1   UNL   C17   30    -0.096100     12.01100 ; qtot -1.802  CT  
    31 opls_135     1   UNL   C18   31    -0.061700     12.01100 ; qtot -1.864  CT  
    32 opls_135     1   UNL   C19   32    -0.101767     12.01100 ; qtot -1.966  CT  
    33 opls_135     1   UNL   C20   33    -0.083733     12.01100 ; qtot -2.050  CT  
    34 opls_135     1   UNL   C21   34    -0.098100     12.01100 ; qtot -2.148  CT  
    35 opls_135     1   UNL   C22   35    -0.061700     12.01100 ; qtot -2.209  CT  
    36 opls_135     1   UNL   C23   36    -0.101767     12.01100 ; qtot -2.311  CT  
    37 opls_135     1   UNL   C24   37    -0.083733     12.01100 ; qtot -2.395  CT  
    38 opls_135     1   UNL   C25   38    -0.098100     12.01100 ; qtot -2.493  CT  
    39 opls_135     1   UNL   C26   39    -0.070700     12.01100 ; qtot -2.564  CT  
    40 opls_135     1   UNL   C27   40    -0.096100     12.01100 ; qtot -2.660  CT  
    41 opls_135     1   UNL   C28   41    -0.096100     12.01100 ; qtot -2.756  CT  
    42 opls_135     1   UNL   C29   42    -0.070700     12.01100 ; qtot -2.827  CT  
    43 opls_135     1   UNL   C30   43    -0.096100     12.01100 ; qtot -2.923  CT  
    44 opls_135     1   UNL   C31   44    -0.096100     12.01100 ; qtot -3.019  CT  
    45 opls_135     1   UNL   C32   45    -0.061700     12.01100 ; qtot -3.081  CT  
    46 opls_135     1   UNL   C33   46    -0.101767     12.01100 ; qtot -3.182  CT  
    47 opls_135     1   UNL   C34   47    -0.083733     12.01100 ; qtot -3.266  CT  
    48 opls_135     1   UNL   C35   48    -0.098100     12.01100 ; qtot -3.364  CT  
    49 opls_140     1   UNL     H   49     0.121700      1.00800 ; qtot -3.242  HC  
    50 opls_140     1   UNL    H1   50     0.121700      1.00800 ; qtot -3.121  HC  
    51 opls_140     1   UNL    H2   51     0.121700      1.00800 ; qtot -2.999  HC  
    52 opls_140     1   UNL    H3   52     0.086033      1.00800 ; qtot -2.913  HC  
    53 opls_140     1   UNL    H4   53     0.086033      1.00800 ; qtot -2.827  HC  
    54 opls_140     1   UNL    H5   54     0.086033      1.00800 ; qtot -2.741  HC  
    55 opls_140     1   UNL    H6   55     0.053256      1.00800 ; qtot -2.688  HC  
    56 opls_140     1   UNL    H7   56     0.053256      1.00800 ; qtot -2.634  HC  
    57 opls_140     1   UNL    H8   57     0.053256      1.00800 ; qtot -2.581  HC  
    58 opls_140     1   UNL    H9   58     0.053256      1.00800 ; qtot -2.528  HC  
    59 opls_140     1   UNL   H10   59     0.053256      1.00800 ; qtot -2.475  HC  
    60 opls_140     1   UNL   H11   60     0.053256      1.00800 ; qtot -2.421  HC  
    61 opls_140     1   UNL   H12   61     0.053256      1.00800 ; qtot -2.368  HC  
    62 opls_140     1   UNL   H13   62     0.053256      1.00800 ; qtot -2.315  HC  
    63 opls_140     1   UNL   H14   63     0.053256      1.00800 ; qtot -2.262  HC  
    64 opls_140     1   UNL   H15   64     0.081700      1.00800 ; qtot -2.180  HC  
    65 opls_140     1   UNL   H16   65     0.042867      1.00800 ; qtot -2.137  HC  
    66 opls_140     1   UNL   H17   66     0.042867      1.00800 ; qtot -2.094  HC  
    67 opls_140     1   UNL   H18   67     0.042867      1.00800 ; qtot -2.051  HC  
    68 opls_140     1   UNL   H19   68     0.042867      1.00800 ; qtot -2.008  HC  
    69 opls_140     1   UNL   H20   69     0.042867      1.00800 ; qtot -1.966  HC  
    70 opls_140     1   UNL   H21   70     0.042867      1.00800 ; qtot -1.923  HC  
    71 opls_140     1   UNL   H22   71     0.066033      1.00800 ; qtot -1.857  HC  
    72 opls_140     1   UNL   H23   72     0.043589      1.00800 ; qtot -1.813  HC  
    73 opls_140     1   UNL   H24   73     0.043589      1.00800 ; qtot -1.769  HC  
    74 opls_140     1   UNL   H25   74     0.043589      1.00800 ; qtot -1.726  HC  
    75 opls_140     1   UNL   H26   75     0.051867      1.00800 ; qtot -1.674  HC  
    76 opls_140     1   UNL   H27   76     0.051867      1.00800 ; qtot -1.622  HC  
    77 opls_140     1   UNL   H28   77     0.038144      1.00800 ; qtot -1.584  HC  
    78 opls_140     1   UNL   H29   78     0.038144      1.00800 ; qtot -1.546  HC  
    79 opls_140     1   UNL   H30   79     0.038144      1.00800 ; qtot -1.508  HC  
    80 opls_140     1   UNL   H31   80     0.066033      1.00800 ; qtot -1.442  HC  
    81 opls_140     1   UNL   H32   81     0.043589      1.00800 ; qtot -1.398  HC  
    82 opls_140     1   UNL   H33   82     0.043589      1.00800 ; qtot -1.355  HC  
    83 opls_140     1   UNL   H34   83     0.043589      1.00800 ; qtot -1.311  HC  
    84 opls_140     1   UNL   H35   84     0.051867      1.00800 ; qtot -1.259  HC  
    85 opls_140     1   UNL   H36   85     0.051867      1.00800 ; qtot -1.207  HC  
    86 opls_140     1   UNL   H37   86     0.038144      1.00800 ; qtot -1.169  HC  
    87 opls_140     1   UNL   H38   87     0.038144      1.00800 ; qtot -1.131  HC  
    88 opls_140     1   UNL   H39   88     0.038144      1.00800 ; qtot -1.093  HC  
    89 opls_140     1   UNL   H40   89     0.081700      1.00800 ; qtot -1.011  HC  
    90 opls_140     1   UNL   H41   90     0.042867      1.00800 ; qtot -0.968  HC  
    91 opls_140     1   UNL   H42   91     0.042867      1.00800 ; qtot -0.925  HC  
    92 opls_140     1   UNL   H43   92     0.042867      1.00800 ; qtot -0.882  HC  
    93 opls_140     1   UNL   H44   93     0.042867      1.00800 ; qtot -0.840  HC  
    94 opls_140     1   UNL   H45   94     0.042867      1.00800 ; qtot -0.797  HC  
    95 opls_140     1   UNL   H46   95     0.042867      1.00800 ; qtot -0.754  HC  
    96 opls_140     1   UNL   H47   96     0.081700      1.00800 ; qtot -0.672  HC  
    97 opls_140     1   UNL   H48   97     0.042867      1.00800 ; qtot -0.629  HC  
    98 opls_140     1   UNL   H49   98     0.042867      1.00800 ; qtot -0.586  HC  
    99 opls_140     1   UNL   H50   99     0.042867      1.00800 ; qtot -0.544  HC  
   100 opls_140     1   UNL   H51  100     0.042867      1.00800 ; qtot -0.501  HC  
   101 opls_140     1   UNL   H52  101     0.042867      1.00800 ; qtot -0.458  HC  
   102 opls_140     1   UNL   H53  102     0.042867      1.00800 ; qtot -0.415  HC  
   103 opls_140     1   UNL   H54  103     0.066033      1.00800 ; qtot -0.349  HC  
   104 opls_140     1   UNL   H55  104     0.043589      1.00800 ; qtot -0.305  HC  
   105 opls_140     1   UNL   H56  105     0.043589      1.00800 ; qtot -0.262  HC  
   106 opls_140     1   UNL   H57  106     0.043589      1.00800 ; qtot -0.218  HC  
   107 opls_140     1   UNL   H58  107     0.051867      1.00800 ; qtot -0.166  HC  
   108 opls_140     1   UNL   H59  108     0.051867      1.00800 ; qtot -0.114  HC  
   109 opls_140     1   UNL   H60  109     0.038144      1.00800 ; qtot -0.076  HC  
   110 opls_140     1   UNL   H61  110     0.038144      1.00800 ; qtot -0.038  HC  
   111 opls_140     1   UNL   H62  111     0.038144      1.00800 ; qtot -0.000  HC  

[ bonds ]
;   ai     aj funct   r             k
     1     16   1 ;    1.4273e-01    2.3620e+05 ;      O - C3          x - CT    
     1     22   1 ;    1.3621e-01    2.9398e+05 ;      O - C9          x - C     
     2     17   1 ;    1.4273e-01    2.3620e+05 ;     O1 - C4          x - CT    
     2     23   1 ;    1.3621e-01    2.9398e+05 ;     O1 - C10         x - C     
     3     18   1 ;    1.4273e-01    2.3620e+05 ;     O2 - C5          x - CT    
     3     24   1 ;    1.3621e-01    2.9398e+05 ;     O2 - C11         x - C     
     4     19   1 ;    1.2190e-01    4.9421e+05 ;     O3 - C6          O - C     
     5     20   1 ;    1.2190e-01    4.9421e+05 ;     O4 - C7          O - C     
     6     21   1 ;    1.2190e-01    4.9421e+05 ;     O5 - C8          O - C     
     7     22   1 ;    1.2190e-01    4.9421e+05 ;     O6 - C9          O - C     
     8     23   1 ;    1.2190e-01    4.9421e+05 ;     O7 - C10         O - C     
     9     24   1 ;    1.2190e-01    4.9421e+05 ;     O8 - C11         O - C     
    10     13   1 ;    1.4643e-01    2.1293e+05 ;      N - C           N - CT    
    10     19   1 ;    1.3967e-01    2.6565e+05 ;      N - C6          N - C     
    10     25   1 ;    1.4643e-01    2.1293e+05 ;      N - C12         N - CT    
    11     14   1 ;    1.4643e-01    2.1293e+05 ;     N1 - C1          N - CT    
    11     20   1 ;    1.3967e-01    2.6565e+05 ;     N1 - C7          N - C     
    11     26   1 ;    1.4643e-01    2.1293e+05 ;     N1 - C13         N - CT    
    12     15   1 ;    1.4643e-01    2.1293e+05 ;     N2 - C2          N - CT    
    12     21   1 ;    1.3967e-01    2.6565e+05 ;     N2 - C8          N - C     
    12     27   1 ;    1.4643e-01    2.1293e+05 ;     N2 - C14         N - CT    
    13     23   1 ;    1.5270e-01    1.9652e+05 ;      C - C10        CT - C     
    13     35   1 ;    1.5354e-01    1.9154e+05 ;      C - C22        CT - CT    
    13     49   1 ;    1.0969e-01    2.8804e+05 ;      C - H          CT - HC    
    14     22   1 ;    1.5270e-01    1.9652e+05 ;     C1 - C9         CT - C     
    14     31   1 ;    1.5354e-01    1.9154e+05 ;     C1 - C18        CT - CT    
    14     50   1 ;    1.0969e-01    2.8804e+05 ;     C1 - H1         CT - HC    
    15     24   1 ;    1.5270e-01    1.9652e+05 ;     C2 - C11        CT - C     
    15     45   1 ;    1.5354e-01    1.9154e+05 ;     C2 - C32        CT - CT    
    15     51   1 ;    1.0969e-01    2.8804e+05 ;     C2 - H2         CT - HC    
    16     19   1 ;    1.5270e-01    1.9652e+05 ;     C3 - C6         CT - C     
    16     28   1 ;    1.5354e-01    1.9154e+05 ;     C3 - C15        CT - CT    
    16     52   1 ;    1.0969e-01    2.8804e+05 ;     C3 - H3         CT - HC    
    17     21   1 ;    1.5270e-01    1.9652e+05 ;     C4 - C8         CT - C     
    17     42   1 ;    1.5354e-01    1.9154e+05 ;     C4 - C29        CT - CT    
    17     53   1 ;    1.0969e-01    2.8804e+05 ;     C4 - H4         CT - HC    
    18     20   1 ;    1.5270e-01    1.9652e+05 ;     C5 - C7         CT - C     
    18     39   1 ;    1.5354e-01    1.9154e+05 ;     C5 - C26        CT - CT    
    18     54   1 ;    1.0969e-01    2.8804e+05 ;     C5 - H5         CT - HC    
    25     55   1 ;    1.0969e-01    2.8804e+05 ;    C12 - H6         CT - HC    
    25     56   1 ;    1.0969e-01    2.8804e+05 ;    C12 - H7         CT - HC    
    25     57   1 ;    1.0969e-01    2.8804e+05 ;    C12 - H8         CT - HC    
    26     58   1 ;    1.0969e-01    2.8804e+05 ;    C13 - H9         CT - HC    
    26     59   1 ;    1.0969e-01    2.8804e+05 ;    C13 - H10        CT - HC    
    26     60   1 ;    1.0969e-01    2.8804e+05 ;    C13 - H11        CT - HC    
    27     61   1 ;    1.0969e-01    2.8804e+05 ;    C14 - H12        CT - HC    
    27     62   1 ;    1.0969e-01    2.8804e+05 ;    C14 - H13        CT - HC    
    27     63   1 ;    1.0969e-01    2.8804e+05 ;    C14 - H14        CT - HC    
    28     29   1 ;    1.5354e-01    1.9154e+05 ;    C15 - C16        CT - CT    
    28     30   1 ;    1.5354e-01    1.9154e+05 ;    C15 - C17        CT - CT    
    28     64   1 ;    1.0962e-01    2.8891e+05 ;    C15 - H15        CT - HC    
    29     65   1 ;    1.0962e-01    2.8891e+05 ;    C16 - H16        CT - HC    
    29     66   1 ;    1.0962e-01    2.8891e+05 ;    C16 - H17        CT - HC    
    29     67   1 ;    1.0962e-01    2.8891e+05 ;    C16 - H18        CT - HC    
    30     68   1 ;    1.0962e-01    2.8891e+05 ;    C17 - H19        CT - HC    
    30     69   1 ;    1.0962e-01    2.8891e+05 ;    C17 - H20        CT - HC    
    30     70   1 ;    1.0962e-01    2.8891e+05 ;    C17 - H21        CT - HC    
    31     32   1 ;    1.5354e-01    1.9154e+05 ;    C18 - C19        CT - CT    
    31     33   1 ;    1.5354e-01    1.9154e+05 ;    C18 - C20        CT - CT    
    31     71   1 ;    1.0962e-01    2.8891e+05 ;    C18 - H22        CT - HC    
    32     72   1 ;    1.0962e-01    2.8891e+05 ;    C19 - H23        CT - HC    
    32     73   1 ;    1.0962e-01    2.8891e+05 ;    C19 - H24        CT - HC    
    32     74   1 ;    1.0962e-01    2.8891e+05 ;    C19 - H25        CT - HC    
    33     34   1 ;    1.5354e-01    1.9154e+05 ;    C20 - C21        CT - CT    
    33     75   1 ;    1.0962e-01    2.8891e+05 ;    C20 - H26        CT - HC    
    33     76   1 ;    1.0962e-01    2.8891e+05 ;    C20 - H27        CT - HC    
    34     77   1 ;    1.0962e-01    2.8891e+05 ;    C21 - H28        CT - HC    
    34     78   1 ;    1.0962e-01    2.8891e+05 ;    C21 - H29        CT - HC    
    34     79   1 ;    1.0962e-01    2.8891e+05 ;    C21 - H30        CT - HC    
    35     36   1 ;    1.5354e-01    1.9154e+05 ;    C22 - C23        CT - CT    
    35     37   1 ;    1.5354e-01    1.9154e+05 ;    C22 - C24        CT - CT    
    35     80   1 ;    1.0962e-01    2.8891e+05 ;    C22 - H31        CT - HC    
    36     81   1 ;    1.0962e-01    2.8891e+05 ;    C23 - H32        CT - HC    
    36     82   1 ;    1.0962e-01    2.8891e+05 ;    C23 - H33        CT - HC    
    36     83   1 ;    1.0962e-01    2.8891e+05 ;    C23 - H34        CT - HC    
    37     38   1 ;    1.5354e-01    1.9154e+05 ;    C24 - C25        CT - CT    
    37     84   1 ;    1.0962e-01    2.8891e+05 ;    C24 - H35        CT - HC    
    37     85   1 ;    1.0962e-01    2.8891e+05 ;    C24 - H36        CT - HC    
    38     86   1 ;    1.0962e-01    2.8891e+05 ;    C25 - H37        CT - HC    
    38     87   1 ;    1.0962e-01    2.8891e+05 ;    C25 - H38        CT - HC    
    38     88   1 ;    1.0962e-01    2.8891e+05 ;    C25 - H39        CT - HC    
    39     40   1 ;    1.5354e-01    1.9154e+05 ;    C26 - C27        CT - CT    
    39     41   1 ;    1.5354e-01    1.9154e+05 ;    C26 - C28        CT - CT    
    39     89   1 ;    1.0962e-01    2.8891e+05 ;    C26 - H40        CT - HC    
    40     90   1 ;    1.0962e-01    2.8891e+05 ;    C27 - H41        CT - HC    
    40     91   1 ;    1.0962e-01    2.8891e+05 ;    C27 - H42        CT - HC    
    40     92   1 ;    1.0962e-01    2.8891e+05 ;    C27 - H43        CT - HC    
    41     93   1 ;    1.0962e-01    2.8891e+05 ;    C28 - H44        CT - HC    
    41     94   1 ;    1.0962e-01    2.8891e+05 ;    C28 - H45        CT - HC    
    41     95   1 ;    1.0962e-01    2.8891e+05 ;    C28 - H46        CT - HC    
    42     43   1 ;    1.5354e-01    1.9154e+05 ;    C29 - C30        CT - CT    
    42     44   1 ;    1.5354e-01    1.9154e+05 ;    C29 - C31        CT - CT    
    42     96   1 ;    1.0962e-01    2.8891e+05 ;    C29 - H47        CT - HC    
    43     97   1 ;    1.0962e-01    2.8891e+05 ;    C30 - H48        CT - HC    
    43     98   1 ;    1.0962e-01    2.8891e+05 ;    C30 - H49        CT - HC    
    43     99   1 ;    1.0962e-01    2.8891e+05 ;    C30 - H50        CT - HC    
    44    100   1 ;    1.0962e-01    2.8891e+05 ;    C31 - H51        CT - HC    
    44    101   1 ;    1.0962e-01    2.8891e+05 ;    C31 - H52        CT - HC    
    44    102   1 ;    1.0962e-01    2.8891e+05 ;    C31 - H53        CT - HC    
    45     46   1 ;    1.5354e-01    1.9154e+05 ;    C32 - C33        CT - CT    
    45     47   1 ;    1.5354e-01    1.9154e+05 ;    C32 - C34        CT - CT    
    45    103   1 ;    1.0962e-01    2.8891e+05 ;    C32 - H54        CT - HC    
    46    104   1 ;    1.0962e-01    2.8891e+05 ;    C33 - H55        CT - HC    
    46    105   1 ;    1.0962e-01    2.8891e+05 ;    C33 - H56        CT - HC    
    46    106   1 ;    1.0962e-01    2.8891e+05 ;    C33 - H57        CT - HC    
    47     48   1 ;    1.5354e-01    1.9154e+05 ;    C34 - C35        CT - CT    
    47    107   1 ;    1.0962e-01    2.8891e+05 ;    C34 - H58        CT - HC    
    47    108   1 ;    1.0962e-01    2.8891e+05 ;    C34 - H59        CT - HC    
    48    109   1 ;    1.0962e-01    2.8891e+05 ;    C35 - H60        CT - HC    
    48    110   1 ;    1.0962e-01    2.8891e+05 ;    C35 - H61        CT - HC    
    48    111   1 ;    1.0962e-01    2.8891e+05 ;    C35 - H62        CT - HC    

[ pairs ]
;   ai     aj    funct
     1      4      1 ;      O - O3    
     1     10      1 ;      O - N     
     1     11      1 ;      O - N1    
     1     29      1 ;      O - C16   
     1     30      1 ;      O - C17   
     1     31      1 ;      O - C18   
     1     50      1 ;      O - H1    
     1     64      1 ;      O - H15   
     2      6      1 ;     O1 - O5    
     2     10      1 ;     O1 - N     
     2     12      1 ;     O1 - N2    
     2     35      1 ;     O1 - C22   
     2     43      1 ;     O1 - C30   
     2     44      1 ;     O1 - C31   
     2     49      1 ;     O1 - H     
     2     96      1 ;     O1 - H47   
     3      5      1 ;     O2 - O4    
     3     11      1 ;     O2 - N1    
     3     12      1 ;     O2 - N2    
     3     40      1 ;     O2 - C27   
     3     41      1 ;     O2 - C28   
     3     45      1 ;     O2 - C32   
     3     51      1 ;     O2 - H2    
     3     89      1 ;     O2 - H40   
     4     13      1 ;     O3 - C     
     4     25      1 ;     O3 - C12   
     4     28      1 ;     O3 - C15   
     4     52      1 ;     O3 - H3    
     5     14      1 ;     O4 - C1    
     5     26      1 ;     O4 - C13   
     5     39      1 ;     O4 - C26   
     5     54      1 ;     O4 - H5    
     6     15      1 ;     O5 - C2    
     6     27      1 ;     O5 - C14   
     6     42      1 ;     O5 - C29   
     6     53      1 ;     O5 - H4    
     7     11      1 ;     O6 - N1    
     7     31      1 ;     O6 - C18   
     7     50      1 ;     O6 - H1    
     8     10      1 ;     O7 - N     
     8     17      1 ;     O7 - C4    
     8     35      1 ;     O7 - C22   
     8     49      1 ;     O7 - H     
     9     12      1 ;     O8 - N2    
     9     18      1 ;     O8 - C5    
     9     45      1 ;     O8 - C32   
     9     51      1 ;     O8 - H2    
    10     28      1 ;      N - C15   
    10     36      1 ;      N - C23   
    10     37      1 ;      N - C24   
    10     52      1 ;      N - H3    
    10     80      1 ;      N - H31   
    11     32      1 ;     N1 - C19   
    11     33      1 ;     N1 - C20   
    11     39      1 ;     N1 - C26   
    11     54      1 ;     N1 - H5    
    11     71      1 ;     N1 - H22   
    12     42      1 ;     N2 - C29   
    12     46      1 ;     N2 - C33   
    12     47      1 ;     N2 - C34   
    12     53      1 ;     N2 - H4    
    12    103      1 ;     N2 - H54   
    13     16      1 ;      C - C3    
    13     17      1 ;      C - C4    
    13     38      1 ;      C - C25   
    13     55      1 ;      C - H6    
    13     56      1 ;      C - H7    
    13     57      1 ;      C - H8    
    13     81      1 ;      C - H32   
    13     82      1 ;      C - H33   
    13     83      1 ;      C - H34   
    13     84      1 ;      C - H35   
    13     85      1 ;      C - H36   
    14     18      1 ;     C1 - C5    
    14     34      1 ;     C1 - C21   
    14     58      1 ;     C1 - H9    
    14     59      1 ;     C1 - H10   
    14     60      1 ;     C1 - H11   
    14     72      1 ;     C1 - H23   
    14     73      1 ;     C1 - H24   
    14     74      1 ;     C1 - H25   
    14     75      1 ;     C1 - H26   
    14     76      1 ;     C1 - H27   
    15     17      1 ;     C2 - C4    
    15     18      1 ;     C2 - C5    
    15     48      1 ;     C2 - C35   
    15     61      1 ;     C2 - H12   
    15     62      1 ;     C2 - H13   
    15     63      1 ;     C2 - H14   
    15    104      1 ;     C2 - H55   
    15    105      1 ;     C2 - H56   
    15    106      1 ;     C2 - H57   
    15    107      1 ;     C2 - H58   
    15    108      1 ;     C2 - H59   
    16      7      1 ;     C3 - O6    
    16     14      1 ;     C3 - C1    
    16     25      1 ;     C3 - C12   
    16     65      1 ;     C3 - H16   
    16     66      1 ;     C3 - H17   
    16     67      1 ;     C3 - H18   
    16     68      1 ;     C3 - H19   
    16     69      1 ;     C3 - H20   
    16     70      1 ;     C3 - H21   
    17     27      1 ;     C4 - C14   
    17     97      1 ;     C4 - H48   
    17     98      1 ;     C4 - H49   
    17     99      1 ;     C4 - H50   
    17    100      1 ;     C4 - H51   
    17    101      1 ;     C4 - H52   
    17    102      1 ;     C4 - H53   
    18     26      1 ;     C5 - C13   
    18     90      1 ;     C5 - H41   
    18     91      1 ;     C5 - H42   
    18     92      1 ;     C5 - H43   
    18     93      1 ;     C5 - H44   
    18     94      1 ;     C5 - H45   
    18     95      1 ;     C5 - H46   
    19     23      1 ;     C6 - C10   
    19     29      1 ;     C6 - C16   
    19     30      1 ;     C6 - C17   
    19     35      1 ;     C6 - C22   
    19     49      1 ;     C6 - H     
    19     55      1 ;     C6 - H6    
    19     56      1 ;     C6 - H7    
    19     57      1 ;     C6 - H8    
    19     64      1 ;     C6 - H15   
    20     22      1 ;     C7 - C9    
    20     24      1 ;     C7 - C11   
    20     31      1 ;     C7 - C18   
    20     40      1 ;     C7 - C27   
    20     41      1 ;     C7 - C28   
    20     50      1 ;     C7 - H1    
    20     58      1 ;     C7 - H9    
    20     59      1 ;     C7 - H10   
    20     60      1 ;     C7 - H11   
    20     89      1 ;     C7 - H40   
    21     23      1 ;     C8 - C10   
    21     24      1 ;     C8 - C11   
    21     43      1 ;     C8 - C30   
    21     44      1 ;     C8 - C31   
    21     45      1 ;     C8 - C32   
    21     51      1 ;     C8 - H2    
    21     61      1 ;     C8 - H12   
    21     62      1 ;     C8 - H13   
    21     63      1 ;     C8 - H14   
    21     96      1 ;     C8 - H47   
    22     19      1 ;     C9 - C6    
    22     26      1 ;     C9 - C13   
    22     28      1 ;     C9 - C15   
    22     32      1 ;     C9 - C19   
    22     33      1 ;     C9 - C20   
    22     52      1 ;     C9 - H3    
    22     71      1 ;     C9 - H22   
    23     25      1 ;    C10 - C12   
    23     36      1 ;    C10 - C23   
    23     37      1 ;    C10 - C24   
    23     42      1 ;    C10 - C29   
    23     53      1 ;    C10 - H4    
    23     80      1 ;    C10 - H31   
    24     27      1 ;    C11 - C14   
    24     39      1 ;    C11 - C26   
    24     46      1 ;    C11 - C33   
    24     47      1 ;    C11 - C34   
    24     54      1 ;    C11 - H5    
    24    103      1 ;    C11 - H54   
    25     35      1 ;    C12 - C22   
    25     49      1 ;    C12 - H     
    26     31      1 ;    C13 - C18   
    26     50      1 ;    C13 - H1    
    27     45      1 ;    C14 - C32   
    27     51      1 ;    C14 - H2    
    29     52      1 ;    C16 - H3    
    29     68      1 ;    C16 - H19   
    29     69      1 ;    C16 - H20   
    29     70      1 ;    C16 - H21   
    30     52      1 ;    C17 - H3    
    30     65      1 ;    C17 - H16   
    30     66      1 ;    C17 - H17   
    30     67      1 ;    C17 - H18   
    31     77      1 ;    C18 - H28   
    31     78      1 ;    C18 - H29   
    31     79      1 ;    C18 - H30   
    32     34      1 ;    C19 - C21   
    32     50      1 ;    C19 - H1    
    32     75      1 ;    C19 - H26   
    32     76      1 ;    C19 - H27   
    33     50      1 ;    C20 - H1    
    33     72      1 ;    C20 - H23   
    33     73      1 ;    C20 - H24   
    33     74      1 ;    C20 - H25   
    34     71      1 ;    C21 - H22   
    35     86      1 ;    C22 - H37   
    35     87      1 ;    C22 - H38   
    35     88      1 ;    C22 - H39   
    36     38      1 ;    C23 - C25   
    36     49      1 ;    C23 - H     
    36     84      1 ;    C23 - H35   
    36     85      1 ;    C23 - H36   
    37     49      1 ;    C24 - H     
    37     81      1 ;    C24 - H32   
    37     82      1 ;    C24 - H33   
    37     83      1 ;    C24 - H34   
    38     80      1 ;    C25 - H31   
    40     54      1 ;    C27 - H5    
    40     93      1 ;    C27 - H44   
    40     94      1 ;    C27 - H45   
    40     95      1 ;    C27 - H46   
    41     54      1 ;    C28 - H5    
    41     90      1 ;    C28 - H41   
    41     91      1 ;    C28 - H42   
    41     92      1 ;    C28 - H43   
    43     53      1 ;    C30 - H4    
    43    100      1 ;    C30 - H51   
    43    101      1 ;    C30 - H52   
    43    102      1 ;    C30 - H53   
    44     53      1 ;    C31 - H4    
    44     97      1 ;    C31 - H48   
    44     98      1 ;    C31 - H49   
    44     99      1 ;    C31 - H50   
    45    109      1 ;    C32 - H60   
    45    110      1 ;    C32 - H61   
    45    111      1 ;    C32 - H62   
    46     48      1 ;    C33 - C35   
    46     51      1 ;    C33 - H2    
    46    107      1 ;    C33 - H58   
    46    108      1 ;    C33 - H59   
    47     51      1 ;    C34 - H2    
    47    104      1 ;    C34 - H55   
    47    105      1 ;    C34 - H56   
    47    106      1 ;    C34 - H57   
    48    103      1 ;    C35 - H54   
    49     80      1 ;      H - H31   
    50     71      1 ;     H1 - H22   
    51    103      1 ;     H2 - H54   
    52     64      1 ;     H3 - H15   
    53     96      1 ;     H4 - H47   
    54     89      1 ;     H5 - H40   
    64     65      1 ;    H15 - H16   
    64     66      1 ;    H15 - H17   
    64     67      1 ;    H15 - H18   
    64     68      1 ;    H15 - H19   
    64     69      1 ;    H15 - H20   
    64     70      1 ;    H15 - H21   
    71     72      1 ;    H22 - H23   
    71     73      1 ;    H22 - H24   
    71     74      1 ;    H22 - H25   
    71     75      1 ;    H22 - H26   
    71     76      1 ;    H22 - H27   
    75     77      1 ;    H26 - H28   
    75     78      1 ;    H26 - H29   
    75     79      1 ;    H26 - H30   
    76     77      1 ;    H27 - H28   
    76     78      1 ;    H27 - H29   
    76     79      1 ;    H27 - H30   
    80     81      1 ;    H31 - H32   
    80     82      1 ;    H31 - H33   
    80     83      1 ;    H31 - H34   
    80     84      1 ;    H31 - H35   
    80     85      1 ;    H31 - H36   
    84     86      1 ;    H35 - H37   
    84     87      1 ;    H35 - H38   
    84     88      1 ;    H35 - H39   
    85     86      1 ;    H36 - H37   
    85     87      1 ;    H36 - H38   
    85     88      1 ;    H36 - H39   
    89     90      1 ;    H40 - H41   
    89     91      1 ;    H40 - H42   
    89     92      1 ;    H40 - H43   
    89     93      1 ;    H40 - H44   
    89     94      1 ;    H40 - H45   
    89     95      1 ;    H40 - H46   
    96     97      1 ;    H47 - H48   
    96     98      1 ;    H47 - H49   
    96     99      1 ;    H47 - H50   
    96    100      1 ;    H47 - H51   
    96    101      1 ;    H47 - H52   
    96    102      1 ;    H47 - H53   
   103    104      1 ;    H54 - H55   
   103    105      1 ;    H54 - H56   
   103    106      1 ;    H54 - H57   
   103    107      1 ;    H54 - H58   
   103    108      1 ;    H54 - H59   
   107    109      1 ;    H58 - H60   
   107    110      1 ;    H58 - H61   
   107    111      1 ;    H58 - H62   
   108    109      1 ;    H59 - H60   
   108    110      1 ;    H59 - H61   
   108    111      1 ;    H59 - H62   

[ angles ]
;   ai     aj     ak    funct   theta         cth
     1     16     19      1 ;    1.0927e+02    6.4517e+02 ;      O - C3   - C6        x -   CT - C   
     1     16     28      1 ;    1.0762e+02    6.4802e+02 ;      O - C3   - C15       x -   CT - CT  
     1     16     52      1 ;    1.1034e+02    4.7028e+02 ;      O - C3   - H3        x -   CT - HC  
     1     22      7      1 ;    1.2320e+02    8.4734e+02 ;      O - C9   - O6        x -    C - O   
     1     22     14      1 ;    1.1080e+02    6.5245e+02 ;      O - C9   - C1        x -    C - CT  
     2     17     21      1 ;    1.0927e+02    6.4517e+02 ;     O1 - C4   - C8        x -   CT - C   
     2     17     42      1 ;    1.0762e+02    6.4802e+02 ;     O1 - C4   - C29       x -   CT - CT  
     2     17     53      1 ;    1.1034e+02    4.7028e+02 ;     O1 - C4   - H4        x -   CT - HC  
     2     23      8      1 ;    1.2320e+02    8.4734e+02 ;     O1 - C10  - O7        x -    C - O   
     2     23     13      1 ;    1.1080e+02    6.5245e+02 ;     O1 - C10  - C         x -    C - CT  
     3     18     20      1 ;    1.0927e+02    6.4517e+02 ;     O2 - C5   - C7        x -   CT - C   
     3     18     39      1 ;    1.0762e+02    6.4802e+02 ;     O2 - C5   - C26       x -   CT - CT  
     3     18     54      1 ;    1.1034e+02    4.7028e+02 ;     O2 - C5   - H5        x -   CT - HC  
     3     24      9      1 ;    1.2320e+02    8.4734e+02 ;     O2 - C11  - O8        x -    C - O   
     3     24     15      1 ;    1.1080e+02    6.5245e+02 ;     O2 - C11  - C2        x -    C - CT  
     4     19     10      1 ;    1.2257e+02    7.2534e+02 ;     O3 - C6   - N         O -    C - N   
     4     19     16      1 ;    1.2290e+02    6.3973e+02 ;     O3 - C6   - C3        O -    C - CT  
     5     20     11      1 ;    1.2257e+02    7.2534e+02 ;     O4 - C7   - N1        O -    C - N   
     5     20     18      1 ;    1.2290e+02    6.3973e+02 ;     O4 - C7   - C5        O -    C - CT  
     6     21     12      1 ;    1.2257e+02    7.2534e+02 ;     O5 - C8   - N2        O -    C - N   
     6     21     17      1 ;    1.2290e+02    6.3973e+02 ;     O5 - C8   - C4        O -    C - CT  
     7     22     14      1 ;    1.2290e+02    6.3973e+02 ;     O6 - C9   - C1        O -    C - CT  
     8     23     13      1 ;    1.2290e+02    6.3973e+02 ;     O7 - C10  - C         O -    C - CT  
     9     24     15      1 ;    1.2290e+02    6.3973e+02 ;     O8 - C11  - C2        O -    C - CT  
    10     13     23      1 ;    1.1194e+02    5.4718e+02 ;      N - C    - C10       N -   CT - C   
    10     13     35      1 ;    1.1278e+02    5.4350e+02 ;      N - C    - C22       N -   CT - CT  
    10     13     49      1 ;    1.0876e+02    4.0242e+02 ;      N - C    - H         N -   CT - HC  
    10     19     16      1 ;    1.1716e+02    5.4551e+02 ;      N - C6   - C3        N -    C - CT  
    10     25     55      1 ;    1.0876e+02    4.0242e+02 ;      N - C12  - H6        N -   CT - HC  
    10     25     56      1 ;    1.0876e+02    4.0242e+02 ;      N - C12  - H7        N -   CT - HC  
    10     25     57      1 ;    1.0876e+02    4.0242e+02 ;      N - C12  - H8        N -   CT - HC  
    11     14     22      1 ;    1.1194e+02    5.4718e+02 ;     N1 - C1   - C9        N -   CT - C   
    11     14     31      1 ;    1.1278e+02    5.4350e+02 ;     N1 - C1   - C18       N -   CT - CT  
    11     14     50      1 ;    1.0876e+02    4.0242e+02 ;     N1 - C1   - H1        N -   CT - HC  
    11     20     18      1 ;    1.1716e+02    5.4551e+02 ;     N1 - C7   - C5        N -    C - CT  
    11     26     58      1 ;    1.0876e+02    4.0242e+02 ;     N1 - C13  - H9        N -   CT - HC  
    11     26     59      1 ;    1.0876e+02    4.0242e+02 ;     N1 - C13  - H10       N -   CT - HC  
    11     26     60      1 ;    1.0876e+02    4.0242e+02 ;     N1 - C13  - H11       N -   CT - HC  
    12     15     24      1 ;    1.1194e+02    5.4718e+02 ;     N2 - C2   - C11       N -   CT - C   
    12     15     45      1 ;    1.1278e+02    5.4350e+02 ;     N2 - C2   - C32       N -   CT - CT  
    12     15     51      1 ;    1.0876e+02    4.0242e+02 ;     N2 - C2   - H2        N -   CT - HC  
    12     21     17      1 ;    1.1716e+02    5.4551e+02 ;     N2 - C8   - C4        N -    C - CT  
    12     27     61      1 ;    1.0876e+02    4.0242e+02 ;     N2 - C14  - H12       N -   CT - HC  
    12     27     62      1 ;    1.0876e+02    4.0242e+02 ;     N2 - C14  - H13       N -   CT - HC  
    12     27     63      1 ;    1.0876e+02    4.0242e+02 ;     N2 - C14  - H14       N -   CT - HC  
    13     10     19      1 ;    1.1883e+02    6.4634e+02 ;      C - N    - C6       CT -    N - C   
    13     10     25      1 ;    1.1675e+02    6.3773e+02 ;      C - N    - C12      CT -    N - CT  
    13     35     36      1 ;    1.1263e+02    5.0099e+02 ;      C - C22  - C23      CT -   CT - CT  
    13     35     37      1 ;    1.1263e+02    5.0099e+02 ;      C - C22  - C24      CT -   CT - CT  
    13     35     80      1 ;    1.0968e+02    3.6208e+02 ;      C - C22  - H31      CT -   CT - HC  
    14     11     20      1 ;    1.1883e+02    6.4634e+02 ;     C1 - N1   - C7       CT -    N - C   
    14     11     26      1 ;    1.1675e+02    6.3773e+02 ;     C1 - N1   - C13      CT -    N - CT  
    14     31     32      1 ;    1.1263e+02    5.0099e+02 ;     C1 - C18  - C19      CT -   CT - CT  
    14     31     33      1 ;    1.1263e+02    5.0099e+02 ;     C1 - C18  - C20      CT -   CT - CT  
    14     31     71      1 ;    1.0968e+02    3.6208e+02 ;     C1 - C18  - H22      CT -   CT - HC  
    15     12     21      1 ;    1.1883e+02    6.4634e+02 ;     C2 - N2   - C8       CT -    N - C   
    15     12     27      1 ;    1.1675e+02    6.3773e+02 ;     C2 - N2   - C14      CT -    N - CT  
    15     45     46      1 ;    1.1263e+02    5.0099e+02 ;     C2 - C32  - C33      CT -   CT - CT  
    15     45     47      1 ;    1.1263e+02    5.0099e+02 ;     C2 - C32  - C34      CT -   CT - CT  
    15     45    103      1 ;    1.0968e+02    3.6208e+02 ;     C2 - C32  - H54      CT -   CT - HC  
    16      1     22      1 ;    1.1582e+02    7.4835e+02 ;     C3 - O    - C9       CT -    x - C   
    16     28     29      1 ;    1.1263e+02    5.0099e+02 ;     C3 - C15  - C16      CT -   CT - CT  
    16     28     30      1 ;    1.1263e+02    5.0099e+02 ;     C3 - C15  - C17      CT -   CT - CT  
    16     28     64      1 ;    1.0968e+02    3.6208e+02 ;     C3 - C15  - H15      CT -   CT - HC  
    17      2     23      1 ;    1.1582e+02    7.4835e+02 ;     C4 - O1   - C10      CT -    x - C   
    17     42     43      1 ;    1.1263e+02    5.0099e+02 ;     C4 - C29  - C30      CT -   CT - CT  
    17     42     44      1 ;    1.1263e+02    5.0099e+02 ;     C4 - C29  - C31      CT -   CT - CT  
    17     42     96      1 ;    1.0968e+02    3.6208e+02 ;     C4 - C29  - H47      CT -   CT - HC  
    18      3     24      1 ;    1.1582e+02    7.4835e+02 ;     C5 - O2   - C11      CT -    x - C   
    18     39     40      1 ;    1.1263e+02    5.0099e+02 ;     C5 - C26  - C27      CT -   CT - CT  
    18     39     41      1 ;    1.1263e+02    5.0099e+02 ;     C5 - C26  - C28      CT -   CT - CT  
    18     39     89      1 ;    1.0968e+02    3.6208e+02 ;     C5 - C26  - H40      CT -   CT - HC  
    19     10     25      1 ;    1.1883e+02    6.4634e+02 ;     C6 - N    - C12       C -    N - CT  
    19     16     28      1 ;    1.1143e+02    5.0509e+02 ;     C6 - C3   - C15       C -   CT - CT  
    19     16     52      1 ;    1.0837e+02    3.6602e+02 ;     C6 - C3   - H3        C -   CT - HC  
    20     11     26      1 ;    1.1883e+02    6.4634e+02 ;     C7 - N1   - C13       C -    N - CT  
    20     18     39      1 ;    1.1143e+02    5.0509e+02 ;     C7 - C5   - C26       C -   CT - CT  
    20     18     54      1 ;    1.0837e+02    3.6602e+02 ;     C7 - C5   - H5        C -   CT - HC  
    21     12     27      1 ;    1.1883e+02    6.4634e+02 ;     C8 - N2   - C14       C -    N - CT  
    21     17     42      1 ;    1.1143e+02    5.0509e+02 ;     C8 - C4   - C29       C -   CT - CT  
    21     17     53      1 ;    1.0837e+02    3.6602e+02 ;     C8 - C4   - H4        C -   CT - HC  
    22     14     31      1 ;    1.1143e+02    5.0509e+02 ;     C9 - C1   - C18       C -   CT - CT  
    22     14     50      1 ;    1.0837e+02    3.6602e+02 ;     C9 - C1   - H1        C -   CT - HC  
    23     13     35      1 ;    1.1143e+02    5.0509e+02 ;    C10 - C    - C22       C -   CT - CT  
    23     13     49      1 ;    1.0837e+02    3.6602e+02 ;    C10 - C    - H         C -   CT - HC  
    24     15     45      1 ;    1.1143e+02    5.0509e+02 ;    C11 - C2   - C32       C -   CT - CT  
    24     15     51      1 ;    1.0837e+02    3.6602e+02 ;    C11 - C2   - H2        C -   CT - HC  
    28     16     52      1 ;    1.0959e+02    3.6217e+02 ;    C15 - C3   - H3       CT -   CT - HC  
    28     29     65      1 ;    1.0968e+02    3.6208e+02 ;    C15 - C16  - H16      CT -   CT - HC  
    28     29     66      1 ;    1.0968e+02    3.6208e+02 ;    C15 - C16  - H17      CT -   CT - HC  
    28     29     67      1 ;    1.0968e+02    3.6208e+02 ;    C15 - C16  - H18      CT -   CT - HC  
    28     30     68      1 ;    1.0968e+02    3.6208e+02 ;    C15 - C17  - H19      CT -   CT - HC  
    28     30     69      1 ;    1.0968e+02    3.6208e+02 ;    C15 - C17  - H20      CT -   CT - HC  
    28     30     70      1 ;    1.0968e+02    3.6208e+02 ;    C15 - C17  - H21      CT -   CT - HC  
    29     28     30      1 ;    1.1263e+02    5.0099e+02 ;    C16 - C15  - C17      CT -   CT - CT  
    29     28     64      1 ;    1.0968e+02    3.6208e+02 ;    C16 - C15  - H15      CT -   CT - HC  
    30     28     64      1 ;    1.0968e+02    3.6208e+02 ;    C17 - C15  - H15      CT -   CT - HC  
    31     14     50      1 ;    1.0959e+02    3.6217e+02 ;    C18 - C1   - H1       CT -   CT - HC  
    31     32     72      1 ;    1.0968e+02    3.6208e+02 ;    C18 - C19  - H23      CT -   CT - HC  
    31     32     73      1 ;    1.0968e+02    3.6208e+02 ;    C18 - C19  - H24      CT -   CT - HC  
    31     32     74      1 ;    1.0968e+02    3.6208e+02 ;    C18 - C19  - H25      CT -   CT - HC  
    31     33     34      1 ;    1.1263e+02    5.0099e+02 ;    C18 - C20  - C21      CT -   CT - CT  
    31     33     75      1 ;    1.0968e+02    3.6208e+02 ;    C18 - C20  - H26      CT -   CT - HC  
    31     33     76      1 ;    1.0968e+02    3.6208e+02 ;    C18 - C20  - H27      CT -   CT - HC  
    32     31     33      1 ;    1.1263e+02    5.0099e+02 ;    C19 - C18  - C20      CT -   CT - CT  
    32     31     71      1 ;    1.0968e+02    3.6208e+02 ;    C19 - C18  - H22      CT -   CT - HC  
    33     31     71      1 ;    1.0968e+02    3.6208e+02 ;    C20 - C18  - H22      CT -   CT - HC  
    33     34     77      1 ;    1.0968e+02    3.6208e+02 ;    C20 - C21  - H28      CT -   CT - HC  
    33     34     78      1 ;    1.0968e+02    3.6208e+02 ;    C20 - C21  - H29      CT -   CT - HC  
    33     34     79      1 ;    1.0968e+02    3.6208e+02 ;    C20 - C21  - H30      CT -   CT - HC  
    34     33     75      1 ;    1.0968e+02    3.6208e+02 ;    C21 - C20  - H26      CT -   CT - HC  
    34     33     76      1 ;    1.0968e+02    3.6208e+02 ;    C21 - C20  - H27      CT -   CT - HC  
    35     13     49      1 ;    1.0959e+02    3.6217e+02 ;    C22 - C    - H        CT -   CT - HC  
    35     36     81      1 ;    1.0968e+02    3.6208e+02 ;    C22 - C23  - H32      CT -   CT - HC  
    35     36     82      1 ;    1.0968e+02    3.6208e+02 ;    C22 - C23  - H33      CT -   CT - HC  
    35     36     83      1 ;    1.0968e+02    3.6208e+02 ;    C22 - C23  - H34      CT -   CT - HC  
    35     37     38      1 ;    1.1263e+02    5.0099e+02 ;    C22 - C24  - C25      CT -   CT - CT  
    35     37     84      1 ;    1.0968e+02    3.6208e+02 ;    C22 - C24  - H35      CT -   CT - HC  
    35     37     85      1 ;    1.0968e+02    3.6208e+02 ;    C22 - C24  - H36      CT -   CT - HC  
    36     35     37      1 ;    1.1263e+02    5.0099e+02 ;    C23 - C22  - C24      CT -   CT - CT  
    36     35     80      1 ;    1.0968e+02    3.6208e+02 ;    C23 - C22  - H31      CT -   CT - HC  
    37     35     80      1 ;    1.0968e+02    3.6208e+02 ;    C24 - C22  - H31      CT -   CT - HC  
    37     38     86      1 ;    1.0968e+02    3.6208e+02 ;    C24 - C25  - H37      CT -   CT - HC  
    37     38     87      1 ;    1.0968e+02    3.6208e+02 ;    C24 - C25  - H38      CT -   CT - HC  
    37     38     88      1 ;    1.0968e+02    3.6208e+02 ;    C24 - C25  - H39      CT -   CT - HC  
    38     37     84      1 ;    1.0968e+02    3.6208e+02 ;    C25 - C24  - H35      CT -   CT - HC  
    38     37     85      1 ;    1.0968e+02    3.6208e+02 ;    C25 - C24  - H36      CT -   CT - HC  
    39     18     54      1 ;    1.0959e+02    3.6217e+02 ;    C26 - C5   - H5       CT -   CT - HC  
    39     40     90      1 ;    1.0968e+02    3.6208e+02 ;    C26 - C27  - H41      CT -   CT - HC  
    39     40     91      1 ;    1.0968e+02    3.6208e+02 ;    C26 - C27  - H42      CT -   CT - HC  
    39     40     92      1 ;    1.0968e+02    3.6208e+02 ;    C26 - C27  - H43      CT -   CT - HC  
    39     41     93      1 ;    1.0968e+02    3.6208e+02 ;    C26 - C28  - H44      CT -   CT - HC  
    39     41     94      1 ;    1.0968e+02    3.6208e+02 ;    C26 - C28  - H45      CT -   CT - HC  
    39     41     95      1 ;    1.0968e+02    3.6208e+02 ;    C26 - C28  - H46      CT -   CT - HC  
    40     39     41      1 ;    1.1263e+02    5.0099e+02 ;    C27 - C26  - C28      CT -   CT - CT  
    40     39     89      1 ;    1.0968e+02    3.6208e+02 ;    C27 - C26  - H40      CT -   CT - HC  
    41     39     89      1 ;    1.0968e+02    3.6208e+02 ;    C28 - C26  - H40      CT -   CT - HC  
    42     17     53      1 ;    1.0959e+02    3.6217e+02 ;    C29 - C4   - H4       CT -   CT - HC  
    42     43     97      1 ;    1.0968e+02    3.6208e+02 ;    C29 - C30  - H48      CT -   CT - HC  
    42     43     98      1 ;    1.0968e+02    3.6208e+02 ;    C29 - C30  - H49      CT -   CT - HC  
    42     43     99      1 ;    1.0968e+02    3.6208e+02 ;    C29 - C30  - H50      CT -   CT - HC  
    42     44    100      1 ;    1.0968e+02    3.6208e+02 ;    C29 - C31  - H51      CT -   CT - HC  
    42     44    101      1 ;    1.0968e+02    3.6208e+02 ;    C29 - C31  - H52      CT -   CT - HC  
    42     44    102      1 ;    1.0968e+02    3.6208e+02 ;    C29 - C31  - H53      CT -   CT - HC  
    43     42     44      1 ;    1.1263e+02    5.0099e+02 ;    C30 - C29  - C31      CT -   CT - CT  
    43     42     96      1 ;    1.0968e+02    3.6208e+02 ;    C30 - C29  - H47      CT -   CT - HC  
    44     42     96      1 ;    1.0968e+02    3.6208e+02 ;    C31 - C29  - H47      CT -   CT - HC  
    45     15     51      1 ;    1.0959e+02    3.6217e+02 ;    C32 - C2   - H2       CT -   CT - HC  
    45     46    104      1 ;    1.0968e+02    3.6208e+02 ;    C32 - C33  - H55      CT -   CT - HC  
    45     46    105      1 ;    1.0968e+02    3.6208e+02 ;    C32 - C33  - H56      CT -   CT - HC  
    45     46    106      1 ;    1.0968e+02    3.6208e+02 ;    C32 - C33  - H57      CT -   CT - HC  
    45     47     48      1 ;    1.1263e+02    5.0099e+02 ;    C32 - C34  - C35      CT -   CT - CT  
    45     47    107      1 ;    1.0968e+02    3.6208e+02 ;    C32 - C34  - H58      CT -   CT - HC  
    45     47    108      1 ;    1.0968e+02    3.6208e+02 ;    C32 - C34  - H59      CT -   CT - HC  
    46     45     47      1 ;    1.1263e+02    5.0099e+02 ;    C33 - C32  - C34      CT -   CT - CT  
    46     45    103      1 ;    1.0968e+02    3.6208e+02 ;    C33 - C32  - H54      CT -   CT - HC  
    47     45    103      1 ;    1.0968e+02    3.6208e+02 ;    C34 - C32  - H54      CT -   CT - HC  
    47     48    109      1 ;    1.0968e+02    3.6208e+02 ;    C34 - C35  - H60      CT -   CT - HC  
    47     48    110      1 ;    1.0968e+02    3.6208e+02 ;    C34 - C35  - H61      CT -   CT - HC  
    47     48    111      1 ;    1.0968e+02    3.6208e+02 ;    C34 - C35  - H62      CT -   CT - HC  
    48     47    107      1 ;    1.0968e+02    3.6208e+02 ;    C35 - C34  - H58      CT -   CT - HC  
    48     47    108      1 ;    1.0968e+02    3.6208e+02 ;    C35 - C34  - H59      CT -   CT - HC  
    55     25     56      1 ;    1.0855e+02    2.9824e+02 ;     H6 - C12  - H7       HC -   CT - HC  
    55     25     57      1 ;    1.0855e+02    2.9824e+02 ;     H6 - C12  - H8       HC -   CT - HC  
    56     25     57      1 ;    1.0855e+02    2.9824e+02 ;     H7 - C12  - H8       HC -   CT - HC  
    58     26     59      1 ;    1.0855e+02    2.9824e+02 ;     H9 - C13  - H10      HC -   CT - HC  
    58     26     60      1 ;    1.0855e+02    2.9824e+02 ;     H9 - C13  - H11      HC -   CT - HC  
    59     26     60      1 ;    1.0855e+02    2.9824e+02 ;    H10 - C13  - H11      HC -   CT - HC  
    61     27     62      1 ;    1.0855e+02    2.9824e+02 ;    H12 - C14  - H13      HC -   CT - HC  
    61     27     63      1 ;    1.0855e+02    2.9824e+02 ;    H12 - C14  - H14      HC -   CT - HC  
    62     27     63      1 ;    1.0855e+02    2.9824e+02 ;    H13 - C14  - H14      HC -   CT - HC  
    65     29     66      1 ;    1.0773e+02    2.9957e+02 ;    H16 - C16  - H17      HC -   CT - HC  
    65     29     67      1 ;    1.0773e+02    2.9957e+02 ;    H16 - C16  - H18      HC -   CT - HC  
    66     29     67      1 ;    1.0773e+02    2.9957e+02 ;    H17 - C16  - H18      HC -   CT - HC  
    68     30     69      1 ;    1.0773e+02    2.9957e+02 ;    H19 - C17  - H20      HC -   CT - HC  
    68     30     70      1 ;    1.0773e+02    2.9957e+02 ;    H19 - C17  - H21      HC -   CT - HC  
    69     30     70      1 ;    1.0773e+02    2.9957e+02 ;    H20 - C17  - H21      HC -   CT - HC  
    72     32     73      1 ;    1.0773e+02    2.9957e+02 ;    H23 - C19  - H24      HC -   CT - HC  
    72     32     74      1 ;    1.0773e+02    2.9957e+02 ;    H23 - C19  - H25      HC -   CT - HC  
    73     32     74      1 ;    1.0773e+02    2.9957e+02 ;    H24 - C19  - H25      HC -   CT - HC  
    75     33     76      1 ;    1.0773e+02    2.9957e+02 ;    H26 - C20  - H27      HC -   CT - HC  
    77     34     78      1 ;    1.0773e+02    2.9957e+02 ;    H28 - C21  - H29      HC -   CT - HC  
    77     34     79      1 ;    1.0773e+02    2.9957e+02 ;    H28 - C21  - H30      HC -   CT - HC  
    78     34     79      1 ;    1.0773e+02    2.9957e+02 ;    H29 - C21  - H30      HC -   CT - HC  
    81     36     82      1 ;    1.0773e+02    2.9957e+02 ;    H32 - C23  - H33      HC -   CT - HC  
    81     36     83      1 ;    1.0773e+02    2.9957e+02 ;    H32 - C23  - H34      HC -   CT - HC  
    82     36     83      1 ;    1.0773e+02    2.9957e+02 ;    H33 - C23  - H34      HC -   CT - HC  
    84     37     85      1 ;    1.0773e+02    2.9957e+02 ;    H35 - C24  - H36      HC -   CT - HC  
    86     38     87      1 ;    1.0773e+02    2.9957e+02 ;    H37 - C25  - H38      HC -   CT - HC  
    86     38     88      1 ;    1.0773e+02    2.9957e+02 ;    H37 - C25  - H39      HC -   CT - HC  
    87     38     88      1 ;    1.0773e+02    2.9957e+02 ;    H38 - C25  - H39      HC -   CT - HC  
    90     40     91      1 ;    1.0773e+02    2.9957e+02 ;    H41 - C27  - H42      HC -   CT - HC  
    90     40     92      1 ;    1.0773e+02    2.9957e+02 ;    H41 - C27  - H43      HC -   CT - HC  
    91     40     92      1 ;    1.0773e+02    2.9957e+02 ;    H42 - C27  - H43      HC -   CT - HC  
    93     41     94      1 ;    1.0773e+02    2.9957e+02 ;    H44 - C28  - H45      HC -   CT - HC  
    93     41     95      1 ;    1.0773e+02    2.9957e+02 ;    H44 - C28  - H46      HC -   CT - HC  
    94     41     95      1 ;    1.0773e+02    2.9957e+02 ;    H45 - C28  - H46      HC -   CT - HC  
    97     43     98      1 ;    1.0773e+02    2.9957e+02 ;    H48 - C30  - H49      HC -   CT - HC  
    97     43     99      1 ;    1.0773e+02    2.9957e+02 ;    H48 - C30  - H50      HC -   CT - HC  
    98     43     99      1 ;    1.0773e+02    2.9957e+02 ;    H49 - C30  - H50      HC -   CT - HC  
   100     44    101      1 ;    1.0773e+02    2.9957e+02 ;    H51 - C31  - H52      HC -   CT - HC  
   100     44    102      1 ;    1.0773e+02    2.9957e+02 ;    H51 - C31  - H53      HC -   CT - HC  
   101     44    102      1 ;    1.0773e+02    2.9957e+02 ;    H52 - C31  - H53      HC -   CT - HC  
   104     46    105      1 ;    1.0773e+02    2.9957e+02 ;    H55 - C33  - H56      HC -   CT - HC  
   104     46    106      1 ;    1.0773e+02    2.9957e+02 ;    H55 - C33  - H57      HC -   CT - HC  
   105     46    106      1 ;    1.0773e+02    2.9957e+02 ;    H56 - C33  - H57      HC -   CT - HC  
   107     47    108      1 ;    1.0773e+02    2.9957e+02 ;    H58 - C34  - H59      HC -   CT - HC  
   109     48    110      1 ;    1.0773e+02    2.9957e+02 ;    H60 - C35  - H61      HC -   CT - HC  
   109     48    111      1 ;    1.0773e+02    2.9957e+02 ;    H60 - C35  - H62      HC -   CT - HC  
   110     48    111      1 ;    1.0773e+02    2.9957e+02 ;    H61 - C35  - H62      HC -   CT - HC  

[ dihedrals ] ; propers
; for gromacs 4.5 or higher, using funct 9
;    i      j      k      l   func   phase     kd      pn
     1     16     19      4      9 ;   180.00   0.00000   1 ;      O-    C3-    C6-    O3
     1     16     19      4      9 ;   180.00   0.87864   3 ;      O-    C3-    C6-    O3
     1     16     19      4      9 ;   180.00   4.47688   2 ;      O-    C3-    C6-    O3
     1     16     19     10      9 ;   180.00   0.00000   2 ;      O-    C3-    C6-     N
     1     16     28     29      9 ;     0.00   0.65084   3 ;      O-    C3-   C15-   C16
     1     16     28     30      9 ;     0.00   0.65084   3 ;      O-    C3-   C15-   C17
     1     16     28     64      9 ;     0.00   0.00000   0 ;      O-    C3-   C15-   H15
     1     16     28     64      9 ;     0.00   1.04600   1 ;      O-    C3-   C15-   H15
     1     22     14     11      9 ;   180.00   0.00000   2 ;      O-    C9-    C1-    N1
     1     22     14     31      9 ;   180.00   0.00000   2 ;      O-    C9-    C1-   C18
     1     22     14     50      9 ;   180.00   0.00000   2 ;      O-    C9-    C1-    H1
     2     17     21      6      9 ;   180.00   0.00000   1 ;     O1-    C4-    C8-    O5
     2     17     21      6      9 ;   180.00   0.87864   3 ;     O1-    C4-    C8-    O5
     2     17     21      6      9 ;   180.00   4.47688   2 ;     O1-    C4-    C8-    O5
     2     17     21     12      9 ;   180.00   0.00000   2 ;     O1-    C4-    C8-    N2
     2     17     42     43      9 ;     0.00   0.65084   3 ;     O1-    C4-   C29-   C30
     2     17     42     44      9 ;     0.00   0.65084   3 ;     O1-    C4-   C29-   C31
     2     17     42     96      9 ;     0.00   0.00000   0 ;     O1-    C4-   C29-   H47
     2     17     42     96      9 ;     0.00   1.04600   1 ;     O1-    C4-   C29-   H47
     2     23     13     10      9 ;   180.00   0.00000   2 ;     O1-   C10-     C-     N
     2     23     13     35      9 ;   180.00   0.00000   2 ;     O1-   C10-     C-   C22
     2     23     13     49      9 ;   180.00   0.00000   2 ;     O1-   C10-     C-     H
     3     18     20      5      9 ;   180.00   0.00000   1 ;     O2-    C5-    C7-    O4
     3     18     20      5      9 ;   180.00   0.87864   3 ;     O2-    C5-    C7-    O4
     3     18     20      5      9 ;   180.00   4.47688   2 ;     O2-    C5-    C7-    O4
     3     18     20     11      9 ;   180.00   0.00000   2 ;     O2-    C5-    C7-    N1
     3     18     39     40      9 ;     0.00   0.65084   3 ;     O2-    C5-   C26-   C27
     3     18     39     41      9 ;     0.00   0.65084   3 ;     O2-    C5-   C26-   C28
     3     18     39     89      9 ;     0.00   0.00000   0 ;     O2-    C5-   C26-   H40
     3     18     39     89      9 ;     0.00   1.04600   1 ;     O2-    C5-   C26-   H40
     3     24     15     12      9 ;   180.00   0.00000   2 ;     O2-   C11-    C2-    N2
     3     24     15     45      9 ;   180.00   0.00000   2 ;     O2-   C11-    C2-   C32
     3     24     15     51      9 ;   180.00   0.00000   2 ;     O2-   C11-    C2-    H2
     4     19     10     13      9 ;   180.00  10.46000   2 ;     O3-    C6-     N-     C
     4     19     10     25      9 ;   180.00  10.46000   2 ;     O3-    C6-     N-   C12
     4     19     16     28      9 ;     0.00   2.84512   1 ;     O3-    C6-    C3-   C15
     4     19     16     28      9 ;   180.00   0.83680   2 ;     O3-    C6-    C3-   C15
     4     19     16     28      9 ;   180.00   1.84096   3 ;     O3-    C6-    C3-   C15
     4     19     16     52      9 ;     0.00   3.34720   1 ;     O3-    C6-    C3-    H3
     4     19     16     52      9 ;   180.00   0.33472   3 ;     O3-    C6-    C3-    H3
     5     20     11     14      9 ;   180.00  10.46000   2 ;     O4-    C7-    N1-    C1
     5     20     11     26      9 ;   180.00  10.46000   2 ;     O4-    C7-    N1-   C13
     5     20     18     39      9 ;     0.00   2.84512   1 ;     O4-    C7-    C5-   C26
     5     20     18     39      9 ;   180.00   0.83680   2 ;     O4-    C7-    C5-   C26
     5     20     18     39      9 ;   180.00   1.84096   3 ;     O4-    C7-    C5-   C26
     5     20     18     54      9 ;     0.00   3.34720   1 ;     O4-    C7-    C5-    H5
     5     20     18     54      9 ;   180.00   0.33472   3 ;     O4-    C7-    C5-    H5
     6     21     12     15      9 ;   180.00  10.46000   2 ;     O5-    C8-    N2-    C2
     6     21     12     27      9 ;   180.00  10.46000   2 ;     O5-    C8-    N2-   C14
     6     21     17     42      9 ;     0.00   2.84512   1 ;     O5-    C8-    C4-   C29
     6     21     17     42      9 ;   180.00   0.83680   2 ;     O5-    C8-    C4-   C29
     6     21     17     42      9 ;   180.00   1.84096   3 ;     O5-    C8-    C4-   C29
     6     21     17     53      9 ;     0.00   3.34720   1 ;     O5-    C8-    C4-    H4
     6     21     17     53      9 ;   180.00   0.33472   3 ;     O5-    C8-    C4-    H4
     7     22     14     11      9 ;   180.00   0.00000   2 ;     O6-    C9-    C1-    N1
     7     22     14     31      9 ;     0.00   2.84512   1 ;     O6-    C9-    C1-   C18
     7     22     14     31      9 ;   180.00   0.83680   2 ;     O6-    C9-    C1-   C18
     7     22     14     31      9 ;   180.00   1.84096   3 ;     O6-    C9-    C1-   C18
     7     22     14     50      9 ;     0.00   3.34720   1 ;     O6-    C9-    C1-    H1
     7     22     14     50      9 ;   180.00   0.33472   3 ;     O6-    C9-    C1-    H1
     8     23      2     17      9 ;   180.00   5.85760   1 ;     O7-   C10-    O1-    C4
     8     23      2     17      9 ;   180.00  11.29680   2 ;     O7-   C10-    O1-    C4
     8     23     13     10      9 ;   180.00   0.00000   2 ;     O7-   C10-     C-     N
     8     23     13     35      9 ;     0.00   2.84512   1 ;     O7-   C10-     C-   C22
     8     23     13     35      9 ;   180.00   0.83680   2 ;     O7-   C10-     C-   C22
     8     23     13     35      9 ;   180.00   1.84096   3 ;     O7-   C10-     C-   C22
     8     23     13     49      9 ;     0.00   3.34720   1 ;     O7-   C10-     C-     H
     8     23     13     49      9 ;   180.00   0.33472   3 ;     O7-   C10-     C-     H
     9     24      3     18      9 ;   180.00   5.85760   1 ;     O8-   C11-    O2-    C5
     9     24      3     18      9 ;   180.00  11.29680   2 ;     O8-   C11-    O2-    C5
     9     24     15     12      9 ;   180.00   0.00000   2 ;     O8-   C11-    C2-    N2
     9     24     15     45      9 ;     0.00   2.84512   1 ;     O8-   C11-    C2-   C32
     9     24     15     45      9 ;   180.00   0.83680   2 ;     O8-   C11-    C2-   C32
     9     24     15     45      9 ;   180.00   1.84096   3 ;     O8-   C11-    C2-   C32
     9     24     15     51      9 ;     0.00   3.34720   1 ;     O8-   C11-    C2-    H2
     9     24     15     51      9 ;   180.00   0.33472   3 ;     O8-   C11-    C2-    H2
    10     13     35     36      9 ;     0.00   0.41840   3 ;      N-     C-   C22-   C23
    10     13     35     37      9 ;     0.00   0.41840   3 ;      N-     C-   C22-   C24
    10     13     35     80      9 ;     0.00   0.65084   3 ;      N-     C-   C22-   H31
    10     19     16     28      9 ;   180.00   0.00000   4 ;      N-    C6-    C3-   C15
    10     19     16     28      9 ;   180.00   2.97064   2 ;      N-    C6-    C3-   C15
    10     19     16     52      9 ;   180.00   0.00000   2 ;      N-    C6-    C3-    H3
    11     14     31     32      9 ;     0.00   0.41840   3 ;     N1-    C1-   C18-   C19
    11     14     31     33      9 ;     0.00   0.41840   3 ;     N1-    C1-   C18-   C20
    11     14     31     71      9 ;     0.00   0.65084   3 ;     N1-    C1-   C18-   H22
    11     20     18     39      9 ;   180.00   0.00000   4 ;     N1-    C7-    C5-   C26
    11     20     18     39      9 ;   180.00   2.97064   2 ;     N1-    C7-    C5-   C26
    11     20     18     54      9 ;   180.00   0.00000   2 ;     N1-    C7-    C5-    H5
    12     15     45     46      9 ;     0.00   0.41840   3 ;     N2-    C2-   C32-   C33
    12     15     45     47      9 ;     0.00   0.41840   3 ;     N2-    C2-   C32-   C34
    12     15     45    103      9 ;     0.00   0.65084   3 ;     N2-    C2-   C32-   H54
    12     21     17     42      9 ;   180.00   0.00000   4 ;     N2-    C8-    C4-   C29
    12     21     17     42      9 ;   180.00   2.97064   2 ;     N2-    C8-    C4-   C29
    12     21     17     53      9 ;   180.00   0.00000   2 ;     N2-    C8-    C4-    H4
    13     10     19     16      9 ;     0.00   2.09200   3 ;      C-     N-    C6-    C3
    13     10     19     16      9 ;     0.00  12.25912   1 ;      C-     N-    C6-    C3
    13     10     19     16      9 ;   180.00   5.89944   2 ;      C-     N-    C6-    C3
    13     10     25     55      9 ;     0.00   0.00000   0 ;      C-     N-   C12-    H6
    13     10     25     56      9 ;     0.00   0.00000   0 ;      C-     N-   C12-    H7
    13     10     25     57      9 ;     0.00   0.00000   0 ;      C-     N-   C12-    H8
    13     23      2     17      9 ;     0.00   3.13800   3 ;      C-   C10-    O1-    C4
    13     23      2     17      9 ;   180.00   7.90776   1 ;      C-   C10-    O1-    C4
    13     23      2     17      9 ;   180.00  13.76536   2 ;      C-   C10-    O1-    C4
    13     35     36     81      9 ;     0.00   0.54392   3 ;      C-   C22-   C23-   H32
    13     35     36     82      9 ;     0.00   0.54392   3 ;      C-   C22-   C23-   H33
    13     35     36     83      9 ;     0.00   0.54392   3 ;      C-   C22-   C23-   H34
    13     35     37     38      9 ;     0.00   2.17568   3 ;      C-   C22-   C24-   C25
    13     35     37     84      9 ;     0.00   0.54392   3 ;      C-   C22-   C24-   H35
    13     35     37     85      9 ;     0.00   0.54392   3 ;      C-   C22-   C24-   H36
    14     11     20     18      9 ;     0.00   2.09200   3 ;     C1-    N1-    C7-    C5
    14     11     20     18      9 ;     0.00  12.25912   1 ;     C1-    N1-    C7-    C5
    14     11     20     18      9 ;   180.00   5.89944   2 ;     C1-    N1-    C7-    C5
    14     11     26     58      9 ;     0.00   0.00000   0 ;     C1-    N1-   C13-    H9
    14     11     26     59      9 ;     0.00   0.00000   0 ;     C1-    N1-   C13-   H10
    14     11     26     60      9 ;     0.00   0.00000   0 ;     C1-    N1-   C13-   H11
    14     31     32     72      9 ;     0.00   0.54392   3 ;     C1-   C18-   C19-   H23
    14     31     32     73      9 ;     0.00   0.54392   3 ;     C1-   C18-   C19-   H24
    14     31     32     74      9 ;     0.00   0.54392   3 ;     C1-   C18-   C19-   H25
    14     31     33     34      9 ;     0.00   2.17568   3 ;     C1-   C18-   C20-   C21
    14     31     33     75      9 ;     0.00   0.54392   3 ;     C1-   C18-   C20-   H26
    14     31     33     76      9 ;     0.00   0.54392   3 ;     C1-   C18-   C20-   H27
    15     12     21     17      9 ;     0.00   2.09200   3 ;     C2-    N2-    C8-    C4
    15     12     21     17      9 ;     0.00  12.25912   1 ;     C2-    N2-    C8-    C4
    15     12     21     17      9 ;   180.00   5.89944   2 ;     C2-    N2-    C8-    C4
    15     12     27     61      9 ;     0.00   0.00000   0 ;     C2-    N2-   C14-   H12
    15     12     27     62      9 ;     0.00   0.00000   0 ;     C2-    N2-   C14-   H13
    15     12     27     63      9 ;     0.00   0.00000   0 ;     C2-    N2-   C14-   H14
    15     24      3     18      9 ;     0.00   3.13800   3 ;     C2-   C11-    O2-    C5
    15     24      3     18      9 ;   180.00   7.90776   1 ;     C2-   C11-    O2-    C5
    15     24      3     18      9 ;   180.00  13.76536   2 ;     C2-   C11-    O2-    C5
    15     45     46    104      9 ;     0.00   0.54392   3 ;     C2-   C32-   C33-   H55
    15     45     46    105      9 ;     0.00   0.54392   3 ;     C2-   C32-   C33-   H56
    15     45     46    106      9 ;     0.00   0.54392   3 ;     C2-   C32-   C33-   H57
    15     45     47     48      9 ;     0.00   2.17568   3 ;     C2-   C32-   C34-   C35
    15     45     47    107      9 ;     0.00   0.54392   3 ;     C2-   C32-   C34-   H58
    15     45     47    108      9 ;     0.00   0.54392   3 ;     C2-   C32-   C34-   H59
    16      1     22      7      9 ;   180.00   5.85760   1 ;     C3-     O-    C9-    O6
    16      1     22      7      9 ;   180.00  11.29680   2 ;     C3-     O-    C9-    O6
    16      1     22     14      9 ;     0.00   3.13800   3 ;     C3-     O-    C9-    C1
    16      1     22     14      9 ;   180.00   7.90776   1 ;     C3-     O-    C9-    C1
    16      1     22     14      9 ;   180.00  13.76536   2 ;     C3-     O-    C9-    C1
    16     19     10     25      9 ;     0.00   2.09200   3 ;     C3-    C6-     N-   C12
    16     19     10     25      9 ;     0.00  12.25912   1 ;     C3-    C6-     N-   C12
    16     19     10     25      9 ;   180.00   5.89944   2 ;     C3-    C6-     N-   C12
    16     28     29     65      9 ;     0.00   0.54392   3 ;     C3-   C15-   C16-   H16
    16     28     29     66      9 ;     0.00   0.54392   3 ;     C3-   C15-   C16-   H17
    16     28     29     67      9 ;     0.00   0.54392   3 ;     C3-   C15-   C16-   H18
    16     28     30     68      9 ;     0.00   0.54392   3 ;     C3-   C15-   C17-   H19
    16     28     30     69      9 ;     0.00   0.54392   3 ;     C3-   C15-   C17-   H20
    16     28     30     70      9 ;     0.00   0.54392   3 ;     C3-   C15-   C17-   H21
    17     21     12     27      9 ;     0.00   2.09200   3 ;     C4-    C8-    N2-   C14
    17     21     12     27      9 ;     0.00  12.25912   1 ;     C4-    C8-    N2-   C14
    17     21     12     27      9 ;   180.00   5.89944   2 ;     C4-    C8-    N2-   C14
    17     42     43     97      9 ;     0.00   0.54392   3 ;     C4-   C29-   C30-   H48
    17     42     43     98      9 ;     0.00   0.54392   3 ;     C4-   C29-   C30-   H49
    17     42     43     99      9 ;     0.00   0.54392   3 ;     C4-   C29-   C30-   H50
    17     42     44    100      9 ;     0.00   0.54392   3 ;     C4-   C29-   C31-   H51
    17     42     44    101      9 ;     0.00   0.54392   3 ;     C4-   C29-   C31-   H52
    17     42     44    102      9 ;     0.00   0.54392   3 ;     C4-   C29-   C31-   H53
    18     20     11     26      9 ;     0.00   2.09200   3 ;     C5-    C7-    N1-   C13
    18     20     11     26      9 ;     0.00  12.25912   1 ;     C5-    C7-    N1-   C13
    18     20     11     26      9 ;   180.00   5.89944   2 ;     C5-    C7-    N1-   C13
    18     39     40     90      9 ;     0.00   0.54392   3 ;     C5-   C26-   C27-   H41
    18     39     40     91      9 ;     0.00   0.54392   3 ;     C5-   C26-   C27-   H42
    18     39     40     92      9 ;     0.00   0.54392   3 ;     C5-   C26-   C27-   H43
    18     39     41     93      9 ;     0.00   0.54392   3 ;     C5-   C26-   C28-   H44
    18     39     41     94      9 ;     0.00   0.54392   3 ;     C5-   C26-   C28-   H45
    18     39     41     95      9 ;     0.00   0.54392   3 ;     C5-   C26-   C28-   H46
    19     10     13     23      9 ;     0.00   2.67776   1 ;     C6-     N-     C-   C10
    19     10     13     23      9 ;   180.00   1.63176   2 ;     C6-     N-     C-   C10
    19     10     13     35      9 ;     0.00   9.45584   1 ;     C6-     N-     C-   C22
    19     10     13     35      9 ;   180.00   0.12552   3 ;     C6-     N-     C-   C22
    19     10     13     35      9 ;   180.00   2.71960   4 ;     C6-     N-     C-   C22
    19     10     13     49      9 ;   180.00   0.00000   2 ;     C6-     N-     C-     H
    19     10     25     55      9 ;   180.00   0.00000   2 ;     C6-     N-   C12-    H6
    19     10     25     56      9 ;   180.00   0.00000   2 ;     C6-     N-   C12-    H7
    19     10     25     57      9 ;   180.00   0.00000   2 ;     C6-     N-   C12-    H8
    19     16     28     29      9 ;     0.00   0.00000   0 ;     C6-    C3-   C15-   C16
    19     16     28     29      9 ;     0.00   0.16736   2 ;     C6-    C3-   C15-   C16
    19     16     28     29      9 ;   180.00   1.92464   1 ;     C6-    C3-   C15-   C16
    19     16     28     30      9 ;     0.00   0.00000   0 ;     C6-    C3-   C15-   C17
    19     16     28     30      9 ;     0.00   0.16736   2 ;     C6-    C3-   C15-   C17
    19     16     28     30      9 ;   180.00   1.92464   1 ;     C6-    C3-   C15-   C17
    19     16     28     64      9 ;     0.00   0.65084   3 ;     C6-    C3-   C15-   H15
    20     11     14     22      9 ;     0.00   2.67776   1 ;     C7-    N1-    C1-    C9
    20     11     14     22      9 ;   180.00   1.63176   2 ;     C7-    N1-    C1-    C9
    20     11     14     31      9 ;     0.00   9.45584   1 ;     C7-    N1-    C1-   C18
    20     11     14     31      9 ;   180.00   0.12552   3 ;     C7-    N1-    C1-   C18
    20     11     14     31      9 ;   180.00   2.71960   4 ;     C7-    N1-    C1-   C18
    20     11     14     50      9 ;   180.00   0.00000   2 ;     C7-    N1-    C1-    H1
    20     11     26     58      9 ;   180.00   0.00000   2 ;     C7-    N1-   C13-    H9
    20     11     26     59      9 ;   180.00   0.00000   2 ;     C7-    N1-   C13-   H10
    20     11     26     60      9 ;   180.00   0.00000   2 ;     C7-    N1-   C13-   H11
    20     18      3     24      9 ;     0.00   1.60387   3 ;     C7-    C5-    O2-   C11
    20     18     39     40      9 ;     0.00   0.00000   0 ;     C7-    C5-   C26-   C27
    20     18     39     40      9 ;     0.00   0.16736   2 ;     C7-    C5-   C26-   C27
    20     18     39     40      9 ;   180.00   1.92464   1 ;     C7-    C5-   C26-   C27
    20     18     39     41      9 ;     0.00   0.00000   0 ;     C7-    C5-   C26-   C28
    20     18     39     41      9 ;     0.00   0.16736   2 ;     C7-    C5-   C26-   C28
    20     18     39     41      9 ;   180.00   1.92464   1 ;     C7-    C5-   C26-   C28
    20     18     39     89      9 ;     0.00   0.65084   3 ;     C7-    C5-   C26-   H40
    21     12     15     24      9 ;     0.00   2.67776   1 ;     C8-    N2-    C2-   C11
    21     12     15     24      9 ;   180.00   1.63176   2 ;     C8-    N2-    C2-   C11
    21     12     15     45      9 ;     0.00   9.45584   1 ;     C8-    N2-    C2-   C32
    21     12     15     45      9 ;   180.00   0.12552   3 ;     C8-    N2-    C2-   C32
    21     12     15     45      9 ;   180.00   2.71960   4 ;     C8-    N2-    C2-   C32
    21     12     15     51      9 ;   180.00   0.00000   2 ;     C8-    N2-    C2-    H2
    21     12     27     61      9 ;   180.00   0.00000   2 ;     C8-    N2-   C14-   H12
    21     12     27     62      9 ;   180.00   0.00000   2 ;     C8-    N2-   C14-   H13
    21     12     27     63      9 ;   180.00   0.00000   2 ;     C8-    N2-   C14-   H14
    21     17      2     23      9 ;     0.00   1.60387   3 ;     C8-    C4-    O1-   C10
    21     17     42     43      9 ;     0.00   0.00000   0 ;     C8-    C4-   C29-   C30
    21     17     42     43      9 ;     0.00   0.16736   2 ;     C8-    C4-   C29-   C30
    21     17     42     43      9 ;   180.00   1.92464   1 ;     C8-    C4-   C29-   C30
    21     17     42     44      9 ;     0.00   0.00000   0 ;     C8-    C4-   C29-   C31
    21     17     42     44      9 ;     0.00   0.16736   2 ;     C8-    C4-   C29-   C31
    21     17     42     44      9 ;   180.00   1.92464   1 ;     C8-    C4-   C29-   C31
    21     17     42     96      9 ;     0.00   0.65084   3 ;     C8-    C4-   C29-   H47
    22      1     16     19      9 ;     0.00   1.60387   3 ;     C9-     O-    C3-    C6
    22      1     16     28      9 ;     0.00   1.60247   3 ;     C9-     O-    C3-   C15
    22      1     16     28      9 ;   180.00   3.34720   1 ;     C9-     O-    C3-   C15
    22      1     16     52      9 ;     0.00   1.60387   3 ;     C9-     O-    C3-    H3
    22     14     11     26      9 ;     0.00   0.00000   0 ;     C9-    C1-    N1-   C13
    22     14     31     32      9 ;     0.00   0.00000   0 ;     C9-    C1-   C18-   C19
    22     14     31     32      9 ;     0.00   0.16736   2 ;     C9-    C1-   C18-   C19
    22     14     31     32      9 ;   180.00   1.92464   1 ;     C9-    C1-   C18-   C19
    22     14     31     33      9 ;     0.00   0.00000   0 ;     C9-    C1-   C18-   C20
    22     14     31     33      9 ;     0.00   0.16736   2 ;     C9-    C1-   C18-   C20
    22     14     31     33      9 ;   180.00   1.92464   1 ;     C9-    C1-   C18-   C20
    22     14     31     71      9 ;     0.00   0.65084   3 ;     C9-    C1-   C18-   H22
    23      2     17     42      9 ;     0.00   1.60247   3 ;    C10-    O1-    C4-   C29
    23      2     17     42      9 ;   180.00   3.34720   1 ;    C10-    O1-    C4-   C29
    23      2     17     53      9 ;     0.00   1.60387   3 ;    C10-    O1-    C4-    H4
    23     13     10     25      9 ;     0.00   0.00000   0 ;    C10-     C-     N-   C12
    23     13     35     36      9 ;     0.00   0.00000   0 ;    C10-     C-   C22-   C23
    23     13     35     36      9 ;     0.00   0.16736   2 ;    C10-     C-   C22-   C23
    23     13     35     36      9 ;   180.00   1.92464   1 ;    C10-     C-   C22-   C23
    23     13     35     37      9 ;     0.00   0.00000   0 ;    C10-     C-   C22-   C24
    23     13     35     37      9 ;     0.00   0.16736   2 ;    C10-     C-   C22-   C24
    23     13     35     37      9 ;   180.00   1.92464   1 ;    C10-     C-   C22-   C24
    23     13     35     80      9 ;     0.00   0.65084   3 ;    C10-     C-   C22-   H31
    24      3     18     39      9 ;     0.00   1.60247   3 ;    C11-    O2-    C5-   C26
    24      3     18     39      9 ;   180.00   3.34720   1 ;    C11-    O2-    C5-   C26
    24      3     18     54      9 ;     0.00   1.60387   3 ;    C11-    O2-    C5-    H5
    24     15     12     27      9 ;     0.00   0.00000   0 ;    C11-    C2-    N2-   C14
    24     15     45     46      9 ;     0.00   0.00000   0 ;    C11-    C2-   C32-   C33
    24     15     45     46      9 ;     0.00   0.16736   2 ;    C11-    C2-   C32-   C33
    24     15     45     46      9 ;   180.00   1.92464   1 ;    C11-    C2-   C32-   C33
    24     15     45     47      9 ;     0.00   0.00000   0 ;    C11-    C2-   C32-   C34
    24     15     45     47      9 ;     0.00   0.16736   2 ;    C11-    C2-   C32-   C34
    24     15     45     47      9 ;   180.00   1.92464   1 ;    C11-    C2-   C32-   C34
    24     15     45    103      9 ;     0.00   0.65084   3 ;    C11-    C2-   C32-   H54
    25     10     13     35      9 ;     0.00   0.00000   0 ;    C12-     N-     C-   C22
    25     10     13     49      9 ;     0.00   0.00000   0 ;    C12-     N-     C-     H
    26     11     14     31      9 ;     0.00   0.00000   0 ;    C13-    N1-    C1-   C18
    26     11     14     50      9 ;     0.00   0.00000   0 ;    C13-    N1-    C1-    H1
    27     12     15     45      9 ;     0.00   0.00000   0 ;    C14-    N2-    C2-   C32
    27     12     15     51      9 ;     0.00   0.00000   0 ;    C14-    N2-    C2-    H2
    29     28     16     52      9 ;     0.00   0.65084   3 ;    C16-   C15-    C3-    H3
    29     28     30     68      9 ;     0.00   0.54392   3 ;    C16-   C15-   C17-   H19
    29     28     30     69      9 ;     0.00   0.54392   3 ;    C16-   C15-   C17-   H20
    29     28     30     70      9 ;     0.00   0.54392   3 ;    C16-   C15-   C17-   H21
    30     28     16     52      9 ;     0.00   0.65084   3 ;    C17-   C15-    C3-    H3
    30     28     29     65      9 ;     0.00   0.54392   3 ;    C17-   C15-   C16-   H16
    30     28     29     66      9 ;     0.00   0.54392   3 ;    C17-   C15-   C16-   H17
    30     28     29     67      9 ;     0.00   0.54392   3 ;    C17-   C15-   C16-   H18
    31     33     34     77      9 ;     0.00   0.54392   3 ;    C18-   C20-   C21-   H28
    31     33     34     78      9 ;     0.00   0.54392   3 ;    C18-   C20-   C21-   H29
    31     33     34     79      9 ;     0.00   0.54392   3 ;    C18-   C20-   C21-   H30
    32     31     14     50      9 ;     0.00   0.65084   3 ;    C19-   C18-    C1-    H1
    32     31     33     34      9 ;     0.00   2.17568   3 ;    C19-   C18-   C20-   C21
    32     31     33     75      9 ;     0.00   0.54392   3 ;    C19-   C18-   C20-   H26
    32     31     33     76      9 ;     0.00   0.54392   3 ;    C19-   C18-   C20-   H27
    33     31     14     50      9 ;     0.00   0.65084   3 ;    C20-   C18-    C1-    H1
    33     31     32     72      9 ;     0.00   0.54392   3 ;    C20-   C18-   C19-   H23
    33     31     32     73      9 ;     0.00   0.54392   3 ;    C20-   C18-   C19-   H24
    33     31     32     74      9 ;     0.00   0.54392   3 ;    C20-   C18-   C19-   H25
    34     33     31     71      9 ;     0.00   0.54392   3 ;    C21-   C20-   C18-   H22
    35     37     38     86      9 ;     0.00   0.54392   3 ;    C22-   C24-   C25-   H37
    35     37     38     87      9 ;     0.00   0.54392   3 ;    C22-   C24-   C25-   H38
    35     37     38     88      9 ;     0.00   0.54392   3 ;    C22-   C24-   C25-   H39
    36     35     13     49      9 ;     0.00   0.65084   3 ;    C23-   C22-     C-     H
    36     35     37     38      9 ;     0.00   2.17568   3 ;    C23-   C22-   C24-   C25
    36     35     37     84      9 ;     0.00   0.54392   3 ;    C23-   C22-   C24-   H35
    36     35     37     85      9 ;     0.00   0.54392   3 ;    C23-   C22-   C24-   H36
    37     35     13     49      9 ;     0.00   0.65084   3 ;    C24-   C22-     C-     H
    37     35     36     81      9 ;     0.00   0.54392   3 ;    C24-   C22-   C23-   H32
    37     35     36     82      9 ;     0.00   0.54392   3 ;    C24-   C22-   C23-   H33
    37     35     36     83      9 ;     0.00   0.54392   3 ;    C24-   C22-   C23-   H34
    38     37     35     80      9 ;     0.00   0.54392   3 ;    C25-   C24-   C22-   H31
    40     39     18     54      9 ;     0.00   0.65084   3 ;    C27-   C26-    C5-    H5
    40     39     41     93      9 ;     0.00   0.54392   3 ;    C27-   C26-   C28-   H44
    40     39     41     94      9 ;     0.00   0.54392   3 ;    C27-   C26-   C28-   H45
    40     39     41     95      9 ;     0.00   0.54392   3 ;    C27-   C26-   C28-   H46
    41     39     18     54      9 ;     0.00   0.65084   3 ;    C28-   C26-    C5-    H5
    41     39     40     90      9 ;     0.00   0.54392   3 ;    C28-   C26-   C27-   H41
    41     39     40     91      9 ;     0.00   0.54392   3 ;    C28-   C26-   C27-   H42
    41     39     40     92      9 ;     0.00   0.54392   3 ;    C28-   C26-   C27-   H43
    43     42     17     53      9 ;     0.00   0.65084   3 ;    C30-   C29-    C4-    H4
    43     42     44    100      9 ;     0.00   0.54392   3 ;    C30-   C29-   C31-   H51
    43     42     44    101      9 ;     0.00   0.54392   3 ;    C30-   C29-   C31-   H52
    43     42     44    102      9 ;     0.00   0.54392   3 ;    C30-   C29-   C31-   H53
    44     42     17     53      9 ;     0.00   0.65084   3 ;    C31-   C29-    C4-    H4
    44     42     43     97      9 ;     0.00   0.54392   3 ;    C31-   C29-   C30-   H48
    44     42     43     98      9 ;     0.00   0.54392   3 ;    C31-   C29-   C30-   H49
    44     42     43     99      9 ;     0.00   0.54392   3 ;    C31-   C29-   C30-   H50
    45     47     48    109      9 ;     0.00   0.54392   3 ;    C32-   C34-   C35-   H60
    45     47     48    110      9 ;     0.00   0.54392   3 ;    C32-   C34-   C35-   H61
    45     47     48    111      9 ;     0.00   0.54392   3 ;    C32-   C34-   C35-   H62
    46     45     15     51      9 ;     0.00   0.65084   3 ;    C33-   C32-    C2-    H2
    46     45     47     48      9 ;     0.00   2.17568   3 ;    C33-   C32-   C34-   C35
    46     45     47    107      9 ;     0.00   0.54392   3 ;    C33-   C32-   C34-   H58
    46     45     47    108      9 ;     0.00   0.54392   3 ;    C33-   C32-   C34-   H59
    47     45     15     51      9 ;     0.00   0.65084   3 ;    C34-   C32-    C2-    H2
    47     45     46    104      9 ;     0.00   0.54392   3 ;    C34-   C32-   C33-   H55
    47     45     46    105      9 ;     0.00   0.54392   3 ;    C34-   C32-   C33-   H56
    47     45     46    106      9 ;     0.00   0.54392   3 ;    C34-   C32-   C33-   H57
    48     47     45    103      9 ;     0.00   0.54392   3 ;    C35-   C34-   C32-   H54
    49     13     35     80      9 ;     0.00   0.65084   3 ;      H-     C-   C22-   H31
    50     14     31     71      9 ;     0.00   0.65084   3 ;     H1-    C1-   C18-   H22
    51     15     45    103      9 ;     0.00   0.65084   3 ;     H2-    C2-   C32-   H54
    52     16     28     64      9 ;     0.00   0.65084   3 ;     H3-    C3-   C15-   H15
    53     17     42     96      9 ;     0.00   0.65084   3 ;     H4-    C4-   C29-   H47
    54     18     39     89      9 ;     0.00   0.65084   3 ;     H5-    C5-   C26-   H40
    64     28     29     65      9 ;     0.00   0.50208   3 ;    H15-   C15-   C16-   H16
    64     28     29     66      9 ;     0.00   0.50208   3 ;    H15-   C15-   C16-   H17
    64     28     29     67      9 ;     0.00   0.50208   3 ;    H15-   C15-   C16-   H18
    64     28     30     68      9 ;     0.00   0.50208   3 ;    H15-   C15-   C17-   H19
    64     28     30     69      9 ;     0.00   0.50208   3 ;    H15-   C15-   C17-   H20
    64     28     30     70      9 ;     0.00   0.50208   3 ;    H15-   C15-   C17-   H21
    71     31     32     72      9 ;     0.00   0.50208   3 ;    H22-   C18-   C19-   H23
    71     31     32     73      9 ;     0.00   0.50208   3 ;    H22-   C18-   C19-   H24
    71     31     32     74      9 ;     0.00   0.50208   3 ;    H22-   C18-   C19-   H25
    71     31     33     75      9 ;     0.00   0.50208   3 ;    H22-   C18-   C20-   H26
    71     31     33     76      9 ;     0.00   0.50208   3 ;    H22-   C18-   C20-   H27
    75     33     34     77      9 ;     0.00   0.50208   3 ;    H26-   C20-   C21-   H28
    75     33     34     78      9 ;     0.00   0.50208   3 ;    H26-   C20-   C21-   H29
    75     33     34     79      9 ;     0.00   0.50208   3 ;    H26-   C20-   C21-   H30
    76     33     34     77      9 ;     0.00   0.50208   3 ;    H27-   C20-   C21-   H28
    76     33     34     78      9 ;     0.00   0.50208   3 ;    H27-   C20-   C21-   H29
    76     33     34     79      9 ;     0.00   0.50208   3 ;    H27-   C20-   C21-   H30
    80     35     36     81      9 ;     0.00   0.50208   3 ;    H31-   C22-   C23-   H32
    80     35     36     82      9 ;     0.00   0.50208   3 ;    H31-   C22-   C23-   H33
    80     35     36     83      9 ;     0.00   0.50208   3 ;    H31-   C22-   C23-   H34
    80     35     37     84      9 ;     0.00   0.50208   3 ;    H31-   C22-   C24-   H35
    80     35     37     85      9 ;     0.00   0.50208   3 ;    H31-   C22-   C24-   H36
    84     37     38     86      9 ;     0.00   0.50208   3 ;    H35-   C24-   C25-   H37
    84     37     38     87      9 ;     0.00   0.50208   3 ;    H35-   C24-   C25-   H38
    84     37     38     88      9 ;     0.00   0.50208   3 ;    H35-   C24-   C25-   H39
    85     37     38     86      9 ;     0.00   0.50208   3 ;    H36-   C24-   C25-   H37
    85     37     38     87      9 ;     0.00   0.50208   3 ;    H36-   C24-   C25-   H38
    85     37     38     88      9 ;     0.00   0.50208   3 ;    H36-   C24-   C25-   H39
    89     39     40     90      9 ;     0.00   0.50208   3 ;    H40-   C26-   C27-   H41
    89     39     40     91      9 ;     0.00   0.50208   3 ;    H40-   C26-   C27-   H42
    89     39     40     92      9 ;     0.00   0.50208   3 ;    H40-   C26-   C27-   H43
    89     39     41     93      9 ;     0.00   0.50208   3 ;    H40-   C26-   C28-   H44
    89     39     41     94      9 ;     0.00   0.50208   3 ;    H40-   C26-   C28-   H45
    89     39     41     95      9 ;     0.00   0.50208   3 ;    H40-   C26-   C28-   H46
    96     42     43     97      9 ;     0.00   0.50208   3 ;    H47-   C29-   C30-   H48
    96     42     43     98      9 ;     0.00   0.50208   3 ;    H47-   C29-   C30-   H49
    96     42     43     99      9 ;     0.00   0.50208   3 ;    H47-   C29-   C30-   H50
    96     42     44    100      9 ;     0.00   0.50208   3 ;    H47-   C29-   C31-   H51
    96     42     44    101      9 ;     0.00   0.50208   3 ;    H47-   C29-   C31-   H52
    96     42     44    102      9 ;     0.00   0.50208   3 ;    H47-   C29-   C31-   H53
   103     45     46    104      9 ;     0.00   0.50208   3 ;    H54-   C32-   C33-   H55
   103     45     46    105      9 ;     0.00   0.50208   3 ;    H54-   C32-   C33-   H56
   103     45     46    106      9 ;     0.00   0.50208   3 ;    H54-   C32-   C33-   H57
   103     45     47    107      9 ;     0.00   0.50208   3 ;    H54-   C32-   C34-   H58
   103     45     47    108      9 ;     0.00   0.50208   3 ;    H54-   C32-   C34-   H59
   107     47     48    109      9 ;     0.00   0.50208   3 ;    H58-   C34-   C35-   H60
   107     47     48    110      9 ;     0.00   0.50208   3 ;    H58-   C34-   C35-   H61
   107     47     48    111      9 ;     0.00   0.50208   3 ;    H58-   C34-   C35-   H62
   108     47     48    109      9 ;     0.00   0.50208   3 ;    H59-   C34-   C35-   H60
   108     47     48    110      9 ;     0.00   0.50208   3 ;    H59-   C34-   C35-   H61
   108     47     48    111      9 ;     0.00   0.50208   3 ;    H59-   C34-   C35-   H62

[ dihedrals ] ; impropers
; treated as propers in GROMACS to use correct AMBER analytical function
;    i      j      k      l   func   phase     kd      pn
     1     22      7     14      4 ;   180.00   4.60240   2 ;      O-    C9-    O6-    C1
    13      8     23      2      4 ;   180.00   4.60240   2 ;      C-    O7-   C10-    O1
    15      9     24      3      4 ;   180.00   4.60240   2 ;     C2-    O8-   C11-    O2
    16     10     19      4      4 ;   180.00  43.93200   2 ;     C3-     N-    C6-    O3
    17     12     21      6      4 ;   180.00  43.93200   2 ;     C4-    N2-    C8-    O5
    18     11     20      5      4 ;   180.00  43.93200   2 ;     C5-    N1-    C7-    O4
    19     13     10     25      4 ;   180.00   4.60240   2 ;     C6-     C-     N-   C12
    20     14     11     26      4 ;   180.00   4.60240   2 ;     C7-    C1-    N1-   C13
    21     15     12     27      4 ;   180.00   4.60240   2 ;     C8-    C2-    N2-   C14
