; h1ea_GMX_OPLS.top created by acpype (v: 2023.10.27) on Thu Sep  4 01:40:55 2025

; Include forcefield parameters
#include "ffoplsaa.itp"

; Include h1ea_GMX.itp topology
#include "h1ea_GMX.itp"

; Ligand position restraints
#ifdef POSRES_LIG
#include "posre_h1ea.itp"
#endif

[ system ]
 h1ea

[ molecules ]
; Compound        nmols
 h1ea             1     
