Results/Site1/HOLO/ENB1/ENB1-Si
   105
  13.0760000  -3.7570000   3.7370000  12.3600000   0.5140000   0.8140000
   9.7730000  -3.3040000  -0.2210000  14.7260000  -1.3650000   1.8510000
  11.3250000  -2.2660000   3.9140000  13.1080000  -3.7230000   1.1450000
   9.6730000  -0.6370000  -2.0610000  12.1260000   2.7490000   0.3350000
  10.6800000  -3.4110000  -2.3340000  13.4120000  -0.3830000   3.4940000
  11.3280000  -5.1610000   0.8010000   9.8280000  -0.1170000   0.2010000
  13.6030000  -1.5500000   4.3800000  11.4380000  -4.9760000  -0.6620000
  10.2540000   1.2730000  -0.0650000  13.7150000   0.7210000   1.2600000
  12.2280000  -4.7500000   3.1190000   8.8100000  -2.2840000  -0.5420000
  14.0020000  -0.4320000   2.2180000  12.5150000  -2.5400000   4.0010000
  12.2610000  -4.4940000   1.6100000   9.4830000  -0.9450000  -0.8810000
  11.6710000   1.6100000   0.3910000  10.6060000  -3.8020000  -1.1730000
  12.5920000   0.7270000   3.9890000  10.2350000  -5.9940000   1.3070000
   9.6120000  -0.5040000   1.5960000  12.8310000  -6.1080000   3.4470000
  14.2090000  -5.9470000   4.0860000  11.9040000  -6.9020000   4.3670000
  13.5580000  -1.2650000   5.8780000  13.5940000  -2.5810000   6.6580000
  14.7110000  -0.3230000   6.2680000  14.3490000   0.6650000   7.3680000
  11.1050000  -6.2320000  -1.4670000   9.8580000  -6.0120000  -2.3200000
  12.2880000  -6.6400000  -2.3450000  14.6400000   0.6890000   0.0460000
  15.0720000   2.1030000  -0.3400000  13.9570000  -0.0010000  -1.1340000
   7.8330000  -2.7440000  -1.6230000   6.8010000  -1.6570000  -1.9120000
   7.1440000  -4.0410000  -1.2070000   9.2540000   2.2800000   0.5050000
   8.8550000   3.2980000  -0.5600000   9.8400000   2.9800000   1.7280000
  14.5960000  -1.9190000   4.2290000  12.4730000  -4.7560000  -0.8200000
  10.2710000   1.3500000  -1.1320000  13.8640000   1.6620000   1.7480000
  11.2160000  -4.7120000   3.4640000   8.2260000  -2.1110000   0.3380000
  12.5440000   1.4940000   3.2450000  13.0290000   1.1230000   4.8820000
  11.6050000   0.3740000   4.2020000   9.6730000  -6.3840000   0.4840000
   9.5950000  -5.4030000   1.9280000  10.6390000  -6.8030000   1.8790000
   9.3090000  -1.5290000   1.6390000   8.8480000   0.1120000   2.0230000
  10.5210000  -0.3770000   2.1460000  12.9450000  -6.6520000   2.5330000
  14.1160000  -5.4050000   5.0040000  14.8510000  -5.4110000   3.4190000
  14.6260000  -6.9130000   4.2830000  11.7770000  -6.3730000   5.2880000
  12.3330000  -7.8620000   4.5630000  10.9530000  -7.0260000   3.8930000
  12.6430000  -0.7690000   6.1280000  14.4990000  -3.1050000   6.4320000
  12.7540000  -3.1830000   6.3810000  13.5540000  -2.3750000   7.7070000
  15.0040000   0.2300000   5.4000000  15.5020000  -0.9370000   6.6470000
  13.5580000   1.3020000   7.0300000  15.2060000   1.2590000   7.6100000
  14.0290000   0.1290000   8.2370000  10.9060000  -7.0260000  -0.7780000
  10.0380000  -5.2200000  -3.0170000   9.0350000  -5.7510000  -1.6880000
   9.6270000  -6.9110000  -2.8530000  12.5020000  -5.8570000  -3.0420000
  12.0440000  -7.5350000  -2.8780000  13.1460000  -6.8140000  -1.7290000
  15.5130000   0.1280000   0.3060000  14.2100000   2.6800000  -0.6040000
  15.7390000   2.0570000  -1.1750000  15.5690000   2.5630000   0.4890000
  13.0800000   0.5470000  -1.4090000  13.6820000  -0.9970000  -0.8550000
  14.6300000  -0.0360000  -1.9650000   8.3860000  -2.9290000  -2.5200000
   6.2360000  -1.4570000  -1.0260000   6.1420000  -1.9880000  -2.6880000
   7.3010000  -0.7640000  -2.2250000   6.5840000  -3.8760000  -0.3100000
   7.8810000  -4.7970000  -1.0330000   6.4840000  -4.3600000  -1.9860000
   8.3750000   1.7510000   0.8100000   9.7220000   3.8390000  -0.8790000
   8.1390000   3.9800000  -0.1510000   8.4250000   2.7890000  -1.3970000
  10.7220000   3.5160000   1.4440000  10.0890000   2.2510000   2.4710000
   9.1200000   3.6640000   2.1270000
