; h1eb1_GMX_OPLS.top created by acpype (v: 2023.10.27) on Thu Sep  4 04:45:22 2025

; Include forcefield parameters
#include "ffoplsaa.itp"

; Include h1eb1_GMX.itp topology
#include "h1eb1_GMX.itp"

; Ligand position restraints
#ifdef POSRES_LIG
#include "posre_h1eb1.itp"
#endif

[ system ]
 h1eb1

[ molecules ]
; Compound        nmols
 h1eb1            1     
