; h1eb1_GMX_OPLS.itp created by acpype (v: 2023.10.27) on Thu Sep  4 04:45:22 2025

; For OPLS atomtypes manual fine tuning
; AC_at:OPLS_at:OPLScode: Possible_Alternatives (see ffoplsaa.atp and ffoplsaanb.itp)
; os:x:opls_x: []
; o:O:opls_236: ['272']
; n:N:opls_237: ['238', '239']
; c3:CT:opls_135: ['136', '137', '149', '157', '158', '206', '209', '210', '223B', '224B', '245', '246', '274', '283', '284', '285', '292', '292B', '293B', '296', '307', '308', '505']
; c:C:opls_235: ['271']
; h1:HC:opls_140: []
; hc:HC:opls_140: []

[ moleculetype ]
;name            nrexcl
 h1eb1            3

[ atoms ]
;   nr  type  resi  res  atom  cgnr     charge      mass       ; qtot   bond_type
     1 opls_x     1   UNL     O    1    -0.404900      0.00000 ; qtot -0.405  x   
     2 opls_x     1   UNL    O1    2    -0.418900      0.00000 ; qtot -0.824  x   
     3 opls_x     1   UNL    O2    3    -0.441900      0.00000 ; qtot -1.266  x   
     4 opls_236     1   UNL    O3    4    -0.569100     15.99940 ; qtot -1.835  O   
     5 opls_236     1   UNL    O4    5    -0.558000     15.99940 ; qtot -2.393  O   
     6 opls_236     1   UNL    O5    6    -0.572100     15.99940 ; qtot -2.965  O   
     7 opls_236     1   UNL    O6    7    -0.578100     15.99940 ; qtot -3.543  O   
     8 opls_236     1   UNL    O7    8    -0.552000     15.99940 ; qtot -4.095  O   
     9 opls_236     1   UNL    O8    9    -0.513000     15.99940 ; qtot -4.608  O   
    10 opls_237     1   UNL     N   10    -0.473800     14.00670 ; qtot -5.082  N   
    11 opls_237     1   UNL    N1   11    -0.461800     14.00670 ; qtot -5.544  N   
    12 opls_237     1   UNL    N2   12    -0.462800     14.00670 ; qtot -6.006  N   
    13 opls_135     1   UNL     C   13     0.070700     12.01100 ; qtot -5.936  CT  
    14 opls_135     1   UNL    C1   14     0.056700     12.01100 ; qtot -5.879  CT  
    15 opls_135     1   UNL    C2   15     0.062700     12.01100 ; qtot -5.816  CT  
    16 opls_135     1   UNL    C3   16     0.083100     12.01100 ; qtot -5.733  CT  
    17 opls_135     1   UNL    C4   17     0.085100     12.01100 ; qtot -5.648  CT  
    18 opls_135     1   UNL    C5   18     0.107100     12.01100 ; qtot -5.541  CT  
    19 opls_235     1   UNL    C6   19     0.665103     12.01100 ; qtot -4.876  C   
    20 opls_235     1   UNL    C7   20     0.618100     12.01100 ; qtot -4.258  C   
    21 opls_235     1   UNL    C8   21     0.636100     12.01100 ; qtot -3.622  C   
    22 opls_235     1   UNL    C9   22     0.644100     12.01100 ; qtot -2.978  C   
    23 opls_235     1   UNL   C10   23     0.629100     12.01100 ; qtot -2.348  C   
    24 opls_235     1   UNL   C11   24     0.619100     12.01100 ; qtot -1.729  C   
    25 opls_135     1   UNL   C12   25     0.071300     12.01100 ; qtot -1.658  CT  
    26 opls_135     1   UNL   C13   26     0.076300     12.01100 ; qtot -1.582  CT  
    27 opls_135     1   UNL   C14   27     0.069300     12.01100 ; qtot -1.512  CT  
    28 opls_135     1   UNL   C15   28    -0.056700     12.01100 ; qtot -1.569  CT  
    29 opls_135     1   UNL   C16   29    -0.094600     12.01100 ; qtot -1.664  CT  
    30 opls_135     1   UNL   C17   30    -0.094600     12.01100 ; qtot -1.758  CT  
    31 opls_135     1   UNL   C18   31    -0.065700     12.01100 ; qtot -1.824  CT  
    32 opls_135     1   UNL   C19   32    -0.100100     12.01100 ; qtot -1.924  CT  
    33 opls_135     1   UNL   C20   33    -0.079400     12.01100 ; qtot -2.004  CT  
    34 opls_135     1   UNL   C21   34    -0.094100     12.01100 ; qtot -2.098  CT  
    35 opls_135     1   UNL   C22   35    -0.064700     12.01100 ; qtot -2.162  CT  
    36 opls_135     1   UNL   C23   36    -0.106350     12.01100 ; qtot -2.269  CT  
    37 opls_135     1   UNL   C24   37    -0.106350     12.01100 ; qtot -2.375  CT  
    38 opls_135     1   UNL   C25   38    -0.070700     12.01100 ; qtot -2.446  CT  
    39 opls_135     1   UNL   C26   39    -0.095600     12.01100 ; qtot -2.541  CT  
    40 opls_135     1   UNL   C27   40    -0.095600     12.01100 ; qtot -2.637  CT  
    41 opls_135     1   UNL   C28   41    -0.088700     12.01100 ; qtot -2.726  CT  
    42 opls_135     1   UNL   C29   42    -0.094100     12.01100 ; qtot -2.820  CT  
    43 opls_135     1   UNL   C30   43    -0.094100     12.01100 ; qtot -2.914  CT  
    44 opls_135     1   UNL   C31   44    -0.064700     12.01100 ; qtot -2.979  CT  
    45 opls_135     1   UNL   C32   45    -0.106350     12.01100 ; qtot -3.085  CT  
    46 opls_135     1   UNL   C33   46    -0.106350     12.01100 ; qtot -3.191  CT  
    47 opls_140     1   UNL     H   47     0.128700      1.00800 ; qtot -3.063  HC  
    48 opls_140     1   UNL    H1   48     0.129700      1.00800 ; qtot -2.933  HC  
    49 opls_140     1   UNL    H2   49     0.129700      1.00800 ; qtot -2.803  HC  
    50 opls_140     1   UNL    H3   50     0.096700      1.00800 ; qtot -2.706  HC  
    51 opls_140     1   UNL    H4   51     0.089700      1.00800 ; qtot -2.617  HC  
    52 opls_140     1   UNL    H5   52     0.085700      1.00800 ; qtot -2.531  HC  
    53 opls_140     1   UNL    H6   53     0.048367      1.00800 ; qtot -2.483  HC  
    54 opls_140     1   UNL    H7   54     0.048367      1.00800 ; qtot -2.434  HC  
    55 opls_140     1   UNL    H8   55     0.048367      1.00800 ; qtot -2.386  HC  
    56 opls_140     1   UNL    H9   56     0.046700      1.00800 ; qtot -2.339  HC  
    57 opls_140     1   UNL   H10   57     0.046700      1.00800 ; qtot -2.293  HC  
    58 opls_140     1   UNL   H11   58     0.046700      1.00800 ; qtot -2.246  HC  
    59 opls_140     1   UNL   H12   59     0.053033      1.00800 ; qtot -2.193  HC  
    60 opls_140     1   UNL   H13   60     0.053033      1.00800 ; qtot -2.140  HC  
    61 opls_140     1   UNL   H14   61     0.053033      1.00800 ; qtot -2.087  HC  
    62 opls_140     1   UNL   H15   62     0.056700      1.00800 ; qtot -2.030  HC  
    63 opls_140     1   UNL   H16   63     0.044700      1.00800 ; qtot -1.985  HC  
    64 opls_140     1   UNL   H17   64     0.044700      1.00800 ; qtot -1.941  HC  
    65 opls_140     1   UNL   H18   65     0.044700      1.00800 ; qtot -1.896  HC  
    66 opls_140     1   UNL   H19   66     0.044700      1.00800 ; qtot -1.851  HC  
    67 opls_140     1   UNL   H20   67     0.044700      1.00800 ; qtot -1.807  HC  
    68 opls_140     1   UNL   H21   68     0.044700      1.00800 ; qtot -1.762  HC  
    69 opls_140     1   UNL   H22   69     0.061700      1.00800 ; qtot -1.700  HC  
    70 opls_140     1   UNL   H23   70     0.044033      1.00800 ; qtot -1.656  HC  
    71 opls_140     1   UNL   H24   71     0.044033      1.00800 ; qtot -1.612  HC  
    72 opls_140     1   UNL   H25   72     0.044033      1.00800 ; qtot -1.568  HC  
    73 opls_140     1   UNL   H26   73     0.051700      1.00800 ; qtot -1.516  HC  
    74 opls_140     1   UNL   H27   74     0.051700      1.00800 ; qtot -1.465  HC  
    75 opls_140     1   UNL   H28   75     0.034700      1.00800 ; qtot -1.430  HC  
    76 opls_140     1   UNL   H29   76     0.034700      1.00800 ; qtot -1.395  HC  
    77 opls_140     1   UNL   H30   77     0.034700      1.00800 ; qtot -1.361  HC  
    78 opls_140     1   UNL   H31   78     0.063200      1.00800 ; qtot -1.297  HC  
    79 opls_140     1   UNL   H32   79     0.045783      1.00800 ; qtot -1.252  HC  
    80 opls_140     1   UNL   H33   80     0.045783      1.00800 ; qtot -1.206  HC  
    81 opls_140     1   UNL   H34   81     0.045783      1.00800 ; qtot -1.160  HC  
    82 opls_140     1   UNL   H35   82     0.045783      1.00800 ; qtot -1.114  HC  
    83 opls_140     1   UNL   H36   83     0.045783      1.00800 ; qtot -1.068  HC  
    84 opls_140     1   UNL   H37   84     0.045783      1.00800 ; qtot -1.023  HC  
    85 opls_140     1   UNL   H38   85     0.079700      1.00800 ; qtot -0.943  HC  
    86 opls_140     1   UNL   H39   86     0.043867      1.00800 ; qtot -0.899  HC  
    87 opls_140     1   UNL   H40   87     0.043867      1.00800 ; qtot -0.855  HC  
    88 opls_140     1   UNL   H41   88     0.043867      1.00800 ; qtot -0.811  HC  
    89 opls_140     1   UNL   H42   89     0.043867      1.00800 ; qtot -0.768  HC  
    90 opls_140     1   UNL   H43   90     0.043867      1.00800 ; qtot -0.724  HC  
    91 opls_140     1   UNL   H44   91     0.043867      1.00800 ; qtot -0.680  HC  
    92 opls_140     1   UNL   H45   92     0.103700      1.00800 ; qtot -0.576  HC  
    93 opls_140     1   UNL   H46   93     0.039700      1.00800 ; qtot -0.536  HC  
    94 opls_140     1   UNL   H47   94     0.039700      1.00800 ; qtot -0.497  HC  
    95 opls_140     1   UNL   H48   95     0.039700      1.00800 ; qtot -0.457  HC  
    96 opls_140     1   UNL   H49   96     0.039700      1.00800 ; qtot -0.417  HC  
    97 opls_140     1   UNL   H50   97     0.039700      1.00800 ; qtot -0.378  HC  
    98 opls_140     1   UNL   H51   98     0.039700      1.00800 ; qtot -0.338  HC  
    99 opls_140     1   UNL   H52   99     0.063200      1.00800 ; qtot -0.275  HC  
   100 opls_140     1   UNL   H53  100     0.045783      1.00800 ; qtot -0.229  HC  
   101 opls_140     1   UNL   H54  101     0.045783      1.00800 ; qtot -0.183  HC  
   102 opls_140     1   UNL   H55  102     0.045783      1.00800 ; qtot -0.137  HC  
   103 opls_140     1   UNL   H56  103     0.045783      1.00800 ; qtot -0.092  HC  
   104 opls_140     1   UNL   H57  104     0.045783      1.00800 ; qtot -0.046  HC  
   105 opls_140     1   UNL   H58  105     0.045783      1.00800 ; qtot  0.000  HC  

[ bonds ]
;   ai     aj funct   r             k
     1     17   1 ;    1.4273e-01    2.3620e+05 ;      O - C4          x - CT    
     1     20   1 ;    1.3621e-01    2.9398e+05 ;      O - C7          x - C     
     2     16   1 ;    1.4273e-01    2.3620e+05 ;     O1 - C3          x - CT    
     2     23   1 ;    1.3621e-01    2.9398e+05 ;     O1 - C10         x - C     
     3     18   1 ;    1.4273e-01    2.3620e+05 ;     O2 - C5          x - CT    
     3     24   1 ;    1.3621e-01    2.9398e+05 ;     O2 - C11         x - C     
     4     19   1 ;    1.2190e-01    4.9421e+05 ;     O3 - C6          O - C     
     5     20   1 ;    1.2190e-01    4.9421e+05 ;     O4 - C7          O - C     
     6     21   1 ;    1.2190e-01    4.9421e+05 ;     O5 - C8          O - C     
     7     22   1 ;    1.2190e-01    4.9421e+05 ;     O6 - C9          O - C     
     8     23   1 ;    1.2190e-01    4.9421e+05 ;     O7 - C10         O - C     
     9     24   1 ;    1.2190e-01    4.9421e+05 ;     O8 - C11         O - C     
    10     13   1 ;    1.4643e-01    2.1293e+05 ;      N - C           N - CT    
    10     19   1 ;    1.3967e-01    2.6565e+05 ;      N - C6          N - C     
    10     25   1 ;    1.4643e-01    2.1293e+05 ;      N - C12         N - CT    
    11     14   1 ;    1.4643e-01    2.1293e+05 ;     N1 - C1          N - CT    
    11     21   1 ;    1.3967e-01    2.6565e+05 ;     N1 - C8          N - C     
    11     26   1 ;    1.4643e-01    2.1293e+05 ;     N1 - C13         N - CT    
    12     15   1 ;    1.4643e-01    2.1293e+05 ;     N2 - C2          N - CT    
    12     22   1 ;    1.3967e-01    2.6565e+05 ;     N2 - C9          N - C     
    12     27   1 ;    1.4643e-01    2.1293e+05 ;     N2 - C14         N - CT    
    13     20   1 ;    1.5270e-01    1.9652e+05 ;      C - C7         CT - C     
    13     31   1 ;    1.5354e-01    1.9154e+05 ;      C - C18        CT - CT    
    13     47   1 ;    1.0969e-01    2.8804e+05 ;      C - H          CT - HC    
    14     24   1 ;    1.5270e-01    1.9652e+05 ;     C1 - C11        CT - C     
    14     35   1 ;    1.5354e-01    1.9154e+05 ;     C1 - C22        CT - CT    
    14     48   1 ;    1.0969e-01    2.8804e+05 ;     C1 - H1         CT - HC    
    15     23   1 ;    1.5270e-01    1.9652e+05 ;     C2 - C10        CT - C     
    15     44   1 ;    1.5354e-01    1.9154e+05 ;     C2 - C31        CT - CT    
    15     49   1 ;    1.0969e-01    2.8804e+05 ;     C2 - H2         CT - HC    
    16     19   1 ;    1.5270e-01    1.9652e+05 ;     C3 - C6         CT - C     
    16     38   1 ;    1.5354e-01    1.9154e+05 ;     C3 - C25        CT - CT    
    16     50   1 ;    1.0969e-01    2.8804e+05 ;     C3 - H3         CT - HC    
    17     21   1 ;    1.5270e-01    1.9652e+05 ;     C4 - C8         CT - C     
    17     28   1 ;    1.5354e-01    1.9154e+05 ;     C4 - C15        CT - CT    
    17     51   1 ;    1.0969e-01    2.8804e+05 ;     C4 - H4         CT - HC    
    18     22   1 ;    1.5270e-01    1.9652e+05 ;     C5 - C9         CT - C     
    18     41   1 ;    1.5354e-01    1.9154e+05 ;     C5 - C28        CT - CT    
    18     52   1 ;    1.0969e-01    2.8804e+05 ;     C5 - H5         CT - HC    
    25     53   1 ;    1.0969e-01    2.8804e+05 ;    C12 - H6         CT - HC    
    25     54   1 ;    1.0969e-01    2.8804e+05 ;    C12 - H7         CT - HC    
    25     55   1 ;    1.0969e-01    2.8804e+05 ;    C12 - H8         CT - HC    
    26     56   1 ;    1.0969e-01    2.8804e+05 ;    C13 - H9         CT - HC    
    26     57   1 ;    1.0969e-01    2.8804e+05 ;    C13 - H10        CT - HC    
    26     58   1 ;    1.0969e-01    2.8804e+05 ;    C13 - H11        CT - HC    
    27     59   1 ;    1.0969e-01    2.8804e+05 ;    C14 - H12        CT - HC    
    27     60   1 ;    1.0969e-01    2.8804e+05 ;    C14 - H13        CT - HC    
    27     61   1 ;    1.0969e-01    2.8804e+05 ;    C14 - H14        CT - HC    
    28     29   1 ;    1.5354e-01    1.9154e+05 ;    C15 - C16        CT - CT    
    28     30   1 ;    1.5354e-01    1.9154e+05 ;    C15 - C17        CT - CT    
    28     62   1 ;    1.0962e-01    2.8891e+05 ;    C15 - H15        CT - HC    
    29     63   1 ;    1.0962e-01    2.8891e+05 ;    C16 - H16        CT - HC    
    29     64   1 ;    1.0962e-01    2.8891e+05 ;    C16 - H17        CT - HC    
    29     65   1 ;    1.0962e-01    2.8891e+05 ;    C16 - H18        CT - HC    
    30     66   1 ;    1.0962e-01    2.8891e+05 ;    C17 - H19        CT - HC    
    30     67   1 ;    1.0962e-01    2.8891e+05 ;    C17 - H20        CT - HC    
    30     68   1 ;    1.0962e-01    2.8891e+05 ;    C17 - H21        CT - HC    
    31     32   1 ;    1.5354e-01    1.9154e+05 ;    C18 - C19        CT - CT    
    31     33   1 ;    1.5354e-01    1.9154e+05 ;    C18 - C20        CT - CT    
    31     69   1 ;    1.0962e-01    2.8891e+05 ;    C18 - H22        CT - HC    
    32     70   1 ;    1.0962e-01    2.8891e+05 ;    C19 - H23        CT - HC    
    32     71   1 ;    1.0962e-01    2.8891e+05 ;    C19 - H24        CT - HC    
    32     72   1 ;    1.0962e-01    2.8891e+05 ;    C19 - H25        CT - HC    
    33     34   1 ;    1.5354e-01    1.9154e+05 ;    C20 - C21        CT - CT    
    33     73   1 ;    1.0962e-01    2.8891e+05 ;    C20 - H26        CT - HC    
    33     74   1 ;    1.0962e-01    2.8891e+05 ;    C20 - H27        CT - HC    
    34     75   1 ;    1.0962e-01    2.8891e+05 ;    C21 - H28        CT - HC    
    34     76   1 ;    1.0962e-01    2.8891e+05 ;    C21 - H29        CT - HC    
    34     77   1 ;    1.0962e-01    2.8891e+05 ;    C21 - H30        CT - HC    
    35     36   1 ;    1.5354e-01    1.9154e+05 ;    C22 - C23        CT - CT    
    35     37   1 ;    1.5354e-01    1.9154e+05 ;    C22 - C24        CT - CT    
    35     78   1 ;    1.0962e-01    2.8891e+05 ;    C22 - H31        CT - HC    
    36     79   1 ;    1.0962e-01    2.8891e+05 ;    C23 - H32        CT - HC    
    36     80   1 ;    1.0962e-01    2.8891e+05 ;    C23 - H33        CT - HC    
    36     81   1 ;    1.0962e-01    2.8891e+05 ;    C23 - H34        CT - HC    
    37     82   1 ;    1.0962e-01    2.8891e+05 ;    C24 - H35        CT - HC    
    37     83   1 ;    1.0962e-01    2.8891e+05 ;    C24 - H36        CT - HC    
    37     84   1 ;    1.0962e-01    2.8891e+05 ;    C24 - H37        CT - HC    
    38     39   1 ;    1.5354e-01    1.9154e+05 ;    C25 - C26        CT - CT    
    38     40   1 ;    1.5354e-01    1.9154e+05 ;    C25 - C27        CT - CT    
    38     85   1 ;    1.0962e-01    2.8891e+05 ;    C25 - H38        CT - HC    
    39     86   1 ;    1.0962e-01    2.8891e+05 ;    C26 - H39        CT - HC    
    39     87   1 ;    1.0962e-01    2.8891e+05 ;    C26 - H40        CT - HC    
    39     88   1 ;    1.0962e-01    2.8891e+05 ;    C26 - H41        CT - HC    
    40     89   1 ;    1.0962e-01    2.8891e+05 ;    C27 - H42        CT - HC    
    40     90   1 ;    1.0962e-01    2.8891e+05 ;    C27 - H43        CT - HC    
    40     91   1 ;    1.0962e-01    2.8891e+05 ;    C27 - H44        CT - HC    
    41     42   1 ;    1.5354e-01    1.9154e+05 ;    C28 - C29        CT - CT    
    41     43   1 ;    1.5354e-01    1.9154e+05 ;    C28 - C30        CT - CT    
    41     92   1 ;    1.0962e-01    2.8891e+05 ;    C28 - H45        CT - HC    
    42     93   1 ;    1.0962e-01    2.8891e+05 ;    C29 - H46        CT - HC    
    42     94   1 ;    1.0962e-01    2.8891e+05 ;    C29 - H47        CT - HC    
    42     95   1 ;    1.0962e-01    2.8891e+05 ;    C29 - H48        CT - HC    
    43     96   1 ;    1.0962e-01    2.8891e+05 ;    C30 - H49        CT - HC    
    43     97   1 ;    1.0962e-01    2.8891e+05 ;    C30 - H50        CT - HC    
    43     98   1 ;    1.0962e-01    2.8891e+05 ;    C30 - H51        CT - HC    
    44     45   1 ;    1.5354e-01    1.9154e+05 ;    C31 - C32        CT - CT    
    44     46   1 ;    1.5354e-01    1.9154e+05 ;    C31 - C33        CT - CT    
    44     99   1 ;    1.0962e-01    2.8891e+05 ;    C31 - H52        CT - HC    
    45    100   1 ;    1.0962e-01    2.8891e+05 ;    C32 - H53        CT - HC    
    45    101   1 ;    1.0962e-01    2.8891e+05 ;    C32 - H54        CT - HC    
    45    102   1 ;    1.0962e-01    2.8891e+05 ;    C32 - H55        CT - HC    
    46    103   1 ;    1.0962e-01    2.8891e+05 ;    C33 - H56        CT - HC    
    46    104   1 ;    1.0962e-01    2.8891e+05 ;    C33 - H57        CT - HC    
    46    105   1 ;    1.0962e-01    2.8891e+05 ;    C33 - H58        CT - HC    

[ pairs ]
;   ai     aj    funct
     1      6      1 ;      O - O5    
     1     10      1 ;      O - N     
     1     11      1 ;      O - N1    
     1     29      1 ;      O - C16   
     1     30      1 ;      O - C17   
     1     31      1 ;      O - C18   
     1     47      1 ;      O - H     
     1     62      1 ;      O - H15   
     2      4      1 ;     O1 - O3    
     2     10      1 ;     O1 - N     
     2     12      1 ;     O1 - N2    
     2     39      1 ;     O1 - C26   
     2     40      1 ;     O1 - C27   
     2     44      1 ;     O1 - C31   
     2     49      1 ;     O1 - H2    
     2     85      1 ;     O1 - H38   
     3      7      1 ;     O2 - O6    
     3     11      1 ;     O2 - N1    
     3     12      1 ;     O2 - N2    
     3     35      1 ;     O2 - C22   
     3     42      1 ;     O2 - C29   
     3     43      1 ;     O2 - C30   
     3     48      1 ;     O2 - H1    
     3     92      1 ;     O2 - H45   
     4     13      1 ;     O3 - C     
     4     25      1 ;     O3 - C12   
     4     38      1 ;     O3 - C25   
     4     50      1 ;     O3 - H3    
     5     10      1 ;     O4 - N     
     5     31      1 ;     O4 - C18   
     5     47      1 ;     O4 - H     
     6     14      1 ;     O5 - C1    
     6     26      1 ;     O5 - C13   
     6     28      1 ;     O5 - C15   
     6     51      1 ;     O5 - H4    
     7     15      1 ;     O6 - C2    
     7     27      1 ;     O6 - C14   
     7     41      1 ;     O6 - C28   
     7     52      1 ;     O6 - H5    
     8     12      1 ;     O7 - N2    
     8     16      1 ;     O7 - C3    
     8     44      1 ;     O7 - C31   
     8     49      1 ;     O7 - H2    
     9     11      1 ;     O8 - N1    
     9     18      1 ;     O8 - C5    
     9     35      1 ;     O8 - C22   
     9     48      1 ;     O8 - H1    
    10     32      1 ;      N - C19   
    10     33      1 ;      N - C20   
    10     38      1 ;      N - C25   
    10     50      1 ;      N - H3    
    10     69      1 ;      N - H22   
    11     28      1 ;     N1 - C15   
    11     36      1 ;     N1 - C23   
    11     37      1 ;     N1 - C24   
    11     51      1 ;     N1 - H4    
    11     78      1 ;     N1 - H31   
    12     41      1 ;     N2 - C28   
    12     45      1 ;     N2 - C32   
    12     46      1 ;     N2 - C33   
    12     52      1 ;     N2 - H5    
    12     99      1 ;     N2 - H52   
    13     16      1 ;      C - C3    
    13     34      1 ;      C - C21   
    13     53      1 ;      C - H6    
    13     54      1 ;      C - H7    
    13     55      1 ;      C - H8    
    13     70      1 ;      C - H23   
    13     71      1 ;      C - H24   
    13     72      1 ;      C - H25   
    13     73      1 ;      C - H26   
    13     74      1 ;      C - H27   
    14     17      1 ;     C1 - C4    
    14     18      1 ;     C1 - C5    
    14     56      1 ;     C1 - H9    
    14     57      1 ;     C1 - H10   
    14     58      1 ;     C1 - H11   
    14     79      1 ;     C1 - H32   
    14     80      1 ;     C1 - H33   
    14     81      1 ;     C1 - H34   
    14     82      1 ;     C1 - H35   
    14     83      1 ;     C1 - H36   
    14     84      1 ;     C1 - H37   
    15     16      1 ;     C2 - C3    
    15     18      1 ;     C2 - C5    
    15     59      1 ;     C2 - H12   
    15     60      1 ;     C2 - H13   
    15     61      1 ;     C2 - H14   
    15    100      1 ;     C2 - H53   
    15    101      1 ;     C2 - H54   
    15    102      1 ;     C2 - H55   
    15    103      1 ;     C2 - H56   
    15    104      1 ;     C2 - H57   
    15    105      1 ;     C2 - H58   
    16     25      1 ;     C3 - C12   
    16     86      1 ;     C3 - H39   
    16     87      1 ;     C3 - H40   
    16     88      1 ;     C3 - H41   
    16     89      1 ;     C3 - H42   
    16     90      1 ;     C3 - H43   
    16     91      1 ;     C3 - H44   
    17      5      1 ;     C4 - O4    
    17     13      1 ;     C4 - C     
    17     26      1 ;     C4 - C13   
    17     63      1 ;     C4 - H16   
    17     64      1 ;     C4 - H17   
    17     65      1 ;     C4 - H18   
    17     66      1 ;     C4 - H19   
    17     67      1 ;     C4 - H20   
    17     68      1 ;     C4 - H21   
    18     27      1 ;     C5 - C14   
    18     93      1 ;     C5 - H46   
    18     94      1 ;     C5 - H47   
    18     95      1 ;     C5 - H48   
    18     96      1 ;     C5 - H49   
    18     97      1 ;     C5 - H50   
    18     98      1 ;     C5 - H51   
    19     20      1 ;     C6 - C7    
    19     23      1 ;     C6 - C10   
    19     31      1 ;     C6 - C18   
    19     39      1 ;     C6 - C26   
    19     40      1 ;     C6 - C27   
    19     47      1 ;     C6 - H     
    19     53      1 ;     C6 - H6    
    19     54      1 ;     C6 - H7    
    19     55      1 ;     C6 - H8    
    19     85      1 ;     C6 - H38   
    20     21      1 ;     C7 - C8    
    20     25      1 ;     C7 - C12   
    20     28      1 ;     C7 - C15   
    20     32      1 ;     C7 - C19   
    20     33      1 ;     C7 - C20   
    20     51      1 ;     C7 - H4    
    20     69      1 ;     C7 - H22   
    21     24      1 ;     C8 - C11   
    21     29      1 ;     C8 - C16   
    21     30      1 ;     C8 - C17   
    21     35      1 ;     C8 - C22   
    21     48      1 ;     C8 - H1    
    21     56      1 ;     C8 - H9    
    21     57      1 ;     C8 - H10   
    21     58      1 ;     C8 - H11   
    21     62      1 ;     C8 - H15   
    22     23      1 ;     C9 - C10   
    22     24      1 ;     C9 - C11   
    22     42      1 ;     C9 - C29   
    22     43      1 ;     C9 - C30   
    22     44      1 ;     C9 - C31   
    22     49      1 ;     C9 - H2    
    22     59      1 ;     C9 - H12   
    22     60      1 ;     C9 - H13   
    22     61      1 ;     C9 - H14   
    22     92      1 ;     C9 - H45   
    23     27      1 ;    C10 - C14   
    23     38      1 ;    C10 - C25   
    23     45      1 ;    C10 - C32   
    23     46      1 ;    C10 - C33   
    23     50      1 ;    C10 - H3    
    23     99      1 ;    C10 - H52   
    24     26      1 ;    C11 - C13   
    24     36      1 ;    C11 - C23   
    24     37      1 ;    C11 - C24   
    24     41      1 ;    C11 - C28   
    24     52      1 ;    C11 - H5    
    24     78      1 ;    C11 - H31   
    25     31      1 ;    C12 - C18   
    25     47      1 ;    C12 - H     
    26     35      1 ;    C13 - C22   
    26     48      1 ;    C13 - H1    
    27     44      1 ;    C14 - C31   
    27     49      1 ;    C14 - H2    
    29     51      1 ;    C16 - H4    
    29     66      1 ;    C16 - H19   
    29     67      1 ;    C16 - H20   
    29     68      1 ;    C16 - H21   
    30     51      1 ;    C17 - H4    
    30     63      1 ;    C17 - H16   
    30     64      1 ;    C17 - H17   
    30     65      1 ;    C17 - H18   
    31     75      1 ;    C18 - H28   
    31     76      1 ;    C18 - H29   
    31     77      1 ;    C18 - H30   
    32     34      1 ;    C19 - C21   
    32     47      1 ;    C19 - H     
    32     73      1 ;    C19 - H26   
    32     74      1 ;    C19 - H27   
    33     47      1 ;    C20 - H     
    33     70      1 ;    C20 - H23   
    33     71      1 ;    C20 - H24   
    33     72      1 ;    C20 - H25   
    34     69      1 ;    C21 - H22   
    36     48      1 ;    C23 - H1    
    36     82      1 ;    C23 - H35   
    36     83      1 ;    C23 - H36   
    36     84      1 ;    C23 - H37   
    37     48      1 ;    C24 - H1    
    37     79      1 ;    C24 - H32   
    37     80      1 ;    C24 - H33   
    37     81      1 ;    C24 - H34   
    39     50      1 ;    C26 - H3    
    39     89      1 ;    C26 - H42   
    39     90      1 ;    C26 - H43   
    39     91      1 ;    C26 - H44   
    40     50      1 ;    C27 - H3    
    40     86      1 ;    C27 - H39   
    40     87      1 ;    C27 - H40   
    40     88      1 ;    C27 - H41   
    42     52      1 ;    C29 - H5    
    42     96      1 ;    C29 - H49   
    42     97      1 ;    C29 - H50   
    42     98      1 ;    C29 - H51   
    43     52      1 ;    C30 - H5    
    43     93      1 ;    C30 - H46   
    43     94      1 ;    C30 - H47   
    43     95      1 ;    C30 - H48   
    45     49      1 ;    C32 - H2    
    45    103      1 ;    C32 - H56   
    45    104      1 ;    C32 - H57   
    45    105      1 ;    C32 - H58   
    46     49      1 ;    C33 - H2    
    46    100      1 ;    C33 - H53   
    46    101      1 ;    C33 - H54   
    46    102      1 ;    C33 - H55   
    47     69      1 ;      H - H22   
    48     78      1 ;     H1 - H31   
    49     99      1 ;     H2 - H52   
    50     85      1 ;     H3 - H38   
    51     62      1 ;     H4 - H15   
    52     92      1 ;     H5 - H45   
    62     63      1 ;    H15 - H16   
    62     64      1 ;    H15 - H17   
    62     65      1 ;    H15 - H18   
    62     66      1 ;    H15 - H19   
    62     67      1 ;    H15 - H20   
    62     68      1 ;    H15 - H21   
    69     70      1 ;    H22 - H23   
    69     71      1 ;    H22 - H24   
    69     72      1 ;    H22 - H25   
    69     73      1 ;    H22 - H26   
    69     74      1 ;    H22 - H27   
    73     75      1 ;    H26 - H28   
    73     76      1 ;    H26 - H29   
    73     77      1 ;    H26 - H30   
    74     75      1 ;    H27 - H28   
    74     76      1 ;    H27 - H29   
    74     77      1 ;    H27 - H30   
    78     79      1 ;    H31 - H32   
    78     80      1 ;    H31 - H33   
    78     81      1 ;    H31 - H34   
    78     82      1 ;    H31 - H35   
    78     83      1 ;    H31 - H36   
    78     84      1 ;    H31 - H37   
    85     86      1 ;    H38 - H39   
    85     87      1 ;    H38 - H40   
    85     88      1 ;    H38 - H41   
    85     89      1 ;    H38 - H42   
    85     90      1 ;    H38 - H43   
    85     91      1 ;    H38 - H44   
    92     93      1 ;    H45 - H46   
    92     94      1 ;    H45 - H47   
    92     95      1 ;    H45 - H48   
    92     96      1 ;    H45 - H49   
    92     97      1 ;    H45 - H50   
    92     98      1 ;    H45 - H51   
    99    100      1 ;    H52 - H53   
    99    101      1 ;    H52 - H54   
    99    102      1 ;    H52 - H55   
    99    103      1 ;    H52 - H56   
    99    104      1 ;    H52 - H57   
    99    105      1 ;    H52 - H58   

[ angles ]
;   ai     aj     ak    funct   theta         cth
     1     17     21      1 ;    1.0927e+02    6.4517e+02 ;      O - C4   - C8        x -   CT - C   
     1     17     28      1 ;    1.0762e+02    6.4802e+02 ;      O - C4   - C15       x -   CT - CT  
     1     17     51      1 ;    1.1034e+02    4.7028e+02 ;      O - C4   - H4        x -   CT - HC  
     1     20      5      1 ;    1.2320e+02    8.4734e+02 ;      O - C7   - O4        x -    C - O   
     1     20     13      1 ;    1.1080e+02    6.5245e+02 ;      O - C7   - C         x -    C - CT  
     2     16     19      1 ;    1.0927e+02    6.4517e+02 ;     O1 - C3   - C6        x -   CT - C   
     2     16     38      1 ;    1.0762e+02    6.4802e+02 ;     O1 - C3   - C25       x -   CT - CT  
     2     16     50      1 ;    1.1034e+02    4.7028e+02 ;     O1 - C3   - H3        x -   CT - HC  
     2     23      8      1 ;    1.2320e+02    8.4734e+02 ;     O1 - C10  - O7        x -    C - O   
     2     23     15      1 ;    1.1080e+02    6.5245e+02 ;     O1 - C10  - C2        x -    C - CT  
     3     18     22      1 ;    1.0927e+02    6.4517e+02 ;     O2 - C5   - C9        x -   CT - C   
     3     18     41      1 ;    1.0762e+02    6.4802e+02 ;     O2 - C5   - C28       x -   CT - CT  
     3     18     52      1 ;    1.1034e+02    4.7028e+02 ;     O2 - C5   - H5        x -   CT - HC  
     3     24      9      1 ;    1.2320e+02    8.4734e+02 ;     O2 - C11  - O8        x -    C - O   
     3     24     14      1 ;    1.1080e+02    6.5245e+02 ;     O2 - C11  - C1        x -    C - CT  
     4     19     10      1 ;    1.2257e+02    7.2534e+02 ;     O3 - C6   - N         O -    C - N   
     4     19     16      1 ;    1.2290e+02    6.3973e+02 ;     O3 - C6   - C3        O -    C - CT  
     5     20     13      1 ;    1.2290e+02    6.3973e+02 ;     O4 - C7   - C         O -    C - CT  
     6     21     11      1 ;    1.2257e+02    7.2534e+02 ;     O5 - C8   - N1        O -    C - N   
     6     21     17      1 ;    1.2290e+02    6.3973e+02 ;     O5 - C8   - C4        O -    C - CT  
     7     22     12      1 ;    1.2257e+02    7.2534e+02 ;     O6 - C9   - N2        O -    C - N   
     7     22     18      1 ;    1.2290e+02    6.3973e+02 ;     O6 - C9   - C5        O -    C - CT  
     8     23     15      1 ;    1.2290e+02    6.3973e+02 ;     O7 - C10  - C2        O -    C - CT  
     9     24     14      1 ;    1.2290e+02    6.3973e+02 ;     O8 - C11  - C1        O -    C - CT  
    10     13     20      1 ;    1.1194e+02    5.4718e+02 ;      N - C    - C7        N -   CT - C   
    10     13     31      1 ;    1.1278e+02    5.4350e+02 ;      N - C    - C18       N -   CT - CT  
    10     13     47      1 ;    1.0876e+02    4.0242e+02 ;      N - C    - H         N -   CT - HC  
    10     19     16      1 ;    1.1716e+02    5.4551e+02 ;      N - C6   - C3        N -    C - CT  
    10     25     53      1 ;    1.0876e+02    4.0242e+02 ;      N - C12  - H6        N -   CT - HC  
    10     25     54      1 ;    1.0876e+02    4.0242e+02 ;      N - C12  - H7        N -   CT - HC  
    10     25     55      1 ;    1.0876e+02    4.0242e+02 ;      N - C12  - H8        N -   CT - HC  
    11     14     24      1 ;    1.1194e+02    5.4718e+02 ;     N1 - C1   - C11       N -   CT - C   
    11     14     35      1 ;    1.1278e+02    5.4350e+02 ;     N1 - C1   - C22       N -   CT - CT  
    11     14     48      1 ;    1.0876e+02    4.0242e+02 ;     N1 - C1   - H1        N -   CT - HC  
    11     21     17      1 ;    1.1716e+02    5.4551e+02 ;     N1 - C8   - C4        N -    C - CT  
    11     26     56      1 ;    1.0876e+02    4.0242e+02 ;     N1 - C13  - H9        N -   CT - HC  
    11     26     57      1 ;    1.0876e+02    4.0242e+02 ;     N1 - C13  - H10       N -   CT - HC  
    11     26     58      1 ;    1.0876e+02    4.0242e+02 ;     N1 - C13  - H11       N -   CT - HC  
    12     15     23      1 ;    1.1194e+02    5.4718e+02 ;     N2 - C2   - C10       N -   CT - C   
    12     15     44      1 ;    1.1278e+02    5.4350e+02 ;     N2 - C2   - C31       N -   CT - CT  
    12     15     49      1 ;    1.0876e+02    4.0242e+02 ;     N2 - C2   - H2        N -   CT - HC  
    12     22     18      1 ;    1.1716e+02    5.4551e+02 ;     N2 - C9   - C5        N -    C - CT  
    12     27     59      1 ;    1.0876e+02    4.0242e+02 ;     N2 - C14  - H12       N -   CT - HC  
    12     27     60      1 ;    1.0876e+02    4.0242e+02 ;     N2 - C14  - H13       N -   CT - HC  
    12     27     61      1 ;    1.0876e+02    4.0242e+02 ;     N2 - C14  - H14       N -   CT - HC  
    13     10     19      1 ;    1.1883e+02    6.4634e+02 ;      C - N    - C6       CT -    N - C   
    13     10     25      1 ;    1.1675e+02    6.3773e+02 ;      C - N    - C12      CT -    N - CT  
    13     31     32      1 ;    1.1263e+02    5.0099e+02 ;      C - C18  - C19      CT -   CT - CT  
    13     31     33      1 ;    1.1263e+02    5.0099e+02 ;      C - C18  - C20      CT -   CT - CT  
    13     31     69      1 ;    1.0968e+02    3.6208e+02 ;      C - C18  - H22      CT -   CT - HC  
    14     11     21      1 ;    1.1883e+02    6.4634e+02 ;     C1 - N1   - C8       CT -    N - C   
    14     11     26      1 ;    1.1675e+02    6.3773e+02 ;     C1 - N1   - C13      CT -    N - CT  
    14     35     36      1 ;    1.1263e+02    5.0099e+02 ;     C1 - C22  - C23      CT -   CT - CT  
    14     35     37      1 ;    1.1263e+02    5.0099e+02 ;     C1 - C22  - C24      CT -   CT - CT  
    14     35     78      1 ;    1.0968e+02    3.6208e+02 ;     C1 - C22  - H31      CT -   CT - HC  
    15     12     22      1 ;    1.1883e+02    6.4634e+02 ;     C2 - N2   - C9       CT -    N - C   
    15     12     27      1 ;    1.1675e+02    6.3773e+02 ;     C2 - N2   - C14      CT -    N - CT  
    15     44     45      1 ;    1.1263e+02    5.0099e+02 ;     C2 - C31  - C32      CT -   CT - CT  
    15     44     46      1 ;    1.1263e+02    5.0099e+02 ;     C2 - C31  - C33      CT -   CT - CT  
    15     44     99      1 ;    1.0968e+02    3.6208e+02 ;     C2 - C31  - H52      CT -   CT - HC  
    16      2     23      1 ;    1.1582e+02    7.4835e+02 ;     C3 - O1   - C10      CT -    x - C   
    16     38     39      1 ;    1.1263e+02    5.0099e+02 ;     C3 - C25  - C26      CT -   CT - CT  
    16     38     40      1 ;    1.1263e+02    5.0099e+02 ;     C3 - C25  - C27      CT -   CT - CT  
    16     38     85      1 ;    1.0968e+02    3.6208e+02 ;     C3 - C25  - H38      CT -   CT - HC  
    17      1     20      1 ;    1.1582e+02    7.4835e+02 ;     C4 - O    - C7       CT -    x - C   
    17     28     29      1 ;    1.1263e+02    5.0099e+02 ;     C4 - C15  - C16      CT -   CT - CT  
    17     28     30      1 ;    1.1263e+02    5.0099e+02 ;     C4 - C15  - C17      CT -   CT - CT  
    17     28     62      1 ;    1.0968e+02    3.6208e+02 ;     C4 - C15  - H15      CT -   CT - HC  
    18      3     24      1 ;    1.1582e+02    7.4835e+02 ;     C5 - O2   - C11      CT -    x - C   
    18     41     42      1 ;    1.1263e+02    5.0099e+02 ;     C5 - C28  - C29      CT -   CT - CT  
    18     41     43      1 ;    1.1263e+02    5.0099e+02 ;     C5 - C28  - C30      CT -   CT - CT  
    18     41     92      1 ;    1.0968e+02    3.6208e+02 ;     C5 - C28  - H45      CT -   CT - HC  
    19     10     25      1 ;    1.1883e+02    6.4634e+02 ;     C6 - N    - C12       C -    N - CT  
    19     16     38      1 ;    1.1143e+02    5.0509e+02 ;     C6 - C3   - C25       C -   CT - CT  
    19     16     50      1 ;    1.0837e+02    3.6602e+02 ;     C6 - C3   - H3        C -   CT - HC  
    20     13     31      1 ;    1.1143e+02    5.0509e+02 ;     C7 - C    - C18       C -   CT - CT  
    20     13     47      1 ;    1.0837e+02    3.6602e+02 ;     C7 - C    - H         C -   CT - HC  
    21     11     26      1 ;    1.1883e+02    6.4634e+02 ;     C8 - N1   - C13       C -    N - CT  
    21     17     28      1 ;    1.1143e+02    5.0509e+02 ;     C8 - C4   - C15       C -   CT - CT  
    21     17     51      1 ;    1.0837e+02    3.6602e+02 ;     C8 - C4   - H4        C -   CT - HC  
    22     12     27      1 ;    1.1883e+02    6.4634e+02 ;     C9 - N2   - C14       C -    N - CT  
    22     18     41      1 ;    1.1143e+02    5.0509e+02 ;     C9 - C5   - C28       C -   CT - CT  
    22     18     52      1 ;    1.0837e+02    3.6602e+02 ;     C9 - C5   - H5        C -   CT - HC  
    23     15     44      1 ;    1.1143e+02    5.0509e+02 ;    C10 - C2   - C31       C -   CT - CT  
    23     15     49      1 ;    1.0837e+02    3.6602e+02 ;    C10 - C2   - H2        C -   CT - HC  
    24     14     35      1 ;    1.1143e+02    5.0509e+02 ;    C11 - C1   - C22       C -   CT - CT  
    24     14     48      1 ;    1.0837e+02    3.6602e+02 ;    C11 - C1   - H1        C -   CT - HC  
    28     17     51      1 ;    1.0959e+02    3.6217e+02 ;    C15 - C4   - H4       CT -   CT - HC  
    28     29     63      1 ;    1.0968e+02    3.6208e+02 ;    C15 - C16  - H16      CT -   CT - HC  
    28     29     64      1 ;    1.0968e+02    3.6208e+02 ;    C15 - C16  - H17      CT -   CT - HC  
    28     29     65      1 ;    1.0968e+02    3.6208e+02 ;    C15 - C16  - H18      CT -   CT - HC  
    28     30     66      1 ;    1.0968e+02    3.6208e+02 ;    C15 - C17  - H19      CT -   CT - HC  
    28     30     67      1 ;    1.0968e+02    3.6208e+02 ;    C15 - C17  - H20      CT -   CT - HC  
    28     30     68      1 ;    1.0968e+02    3.6208e+02 ;    C15 - C17  - H21      CT -   CT - HC  
    29     28     30      1 ;    1.1263e+02    5.0099e+02 ;    C16 - C15  - C17      CT -   CT - CT  
    29     28     62      1 ;    1.0968e+02    3.6208e+02 ;    C16 - C15  - H15      CT -   CT - HC  
    30     28     62      1 ;    1.0968e+02    3.6208e+02 ;    C17 - C15  - H15      CT -   CT - HC  
    31     13     47      1 ;    1.0959e+02    3.6217e+02 ;    C18 - C    - H        CT -   CT - HC  
    31     32     70      1 ;    1.0968e+02    3.6208e+02 ;    C18 - C19  - H23      CT -   CT - HC  
    31     32     71      1 ;    1.0968e+02    3.6208e+02 ;    C18 - C19  - H24      CT -   CT - HC  
    31     32     72      1 ;    1.0968e+02    3.6208e+02 ;    C18 - C19  - H25      CT -   CT - HC  
    31     33     34      1 ;    1.1263e+02    5.0099e+02 ;    C18 - C20  - C21      CT -   CT - CT  
    31     33     73      1 ;    1.0968e+02    3.6208e+02 ;    C18 - C20  - H26      CT -   CT - HC  
    31     33     74      1 ;    1.0968e+02    3.6208e+02 ;    C18 - C20  - H27      CT -   CT - HC  
    32     31     33      1 ;    1.1263e+02    5.0099e+02 ;    C19 - C18  - C20      CT -   CT - CT  
    32     31     69      1 ;    1.0968e+02    3.6208e+02 ;    C19 - C18  - H22      CT -   CT - HC  
    33     31     69      1 ;    1.0968e+02    3.6208e+02 ;    C20 - C18  - H22      CT -   CT - HC  
    33     34     75      1 ;    1.0968e+02    3.6208e+02 ;    C20 - C21  - H28      CT -   CT - HC  
    33     34     76      1 ;    1.0968e+02    3.6208e+02 ;    C20 - C21  - H29      CT -   CT - HC  
    33     34     77      1 ;    1.0968e+02    3.6208e+02 ;    C20 - C21  - H30      CT -   CT - HC  
    34     33     73      1 ;    1.0968e+02    3.6208e+02 ;    C21 - C20  - H26      CT -   CT - HC  
    34     33     74      1 ;    1.0968e+02    3.6208e+02 ;    C21 - C20  - H27      CT -   CT - HC  
    35     14     48      1 ;    1.0959e+02    3.6217e+02 ;    C22 - C1   - H1       CT -   CT - HC  
    35     36     79      1 ;    1.0968e+02    3.6208e+02 ;    C22 - C23  - H32      CT -   CT - HC  
    35     36     80      1 ;    1.0968e+02    3.6208e+02 ;    C22 - C23  - H33      CT -   CT - HC  
    35     36     81      1 ;    1.0968e+02    3.6208e+02 ;    C22 - C23  - H34      CT -   CT - HC  
    35     37     82      1 ;    1.0968e+02    3.6208e+02 ;    C22 - C24  - H35      CT -   CT - HC  
    35     37     83      1 ;    1.0968e+02    3.6208e+02 ;    C22 - C24  - H36      CT -   CT - HC  
    35     37     84      1 ;    1.0968e+02    3.6208e+02 ;    C22 - C24  - H37      CT -   CT - HC  
    36     35     37      1 ;    1.1263e+02    5.0099e+02 ;    C23 - C22  - C24      CT -   CT - CT  
    36     35     78      1 ;    1.0968e+02    3.6208e+02 ;    C23 - C22  - H31      CT -   CT - HC  
    37     35     78      1 ;    1.0968e+02    3.6208e+02 ;    C24 - C22  - H31      CT -   CT - HC  
    38     16     50      1 ;    1.0959e+02    3.6217e+02 ;    C25 - C3   - H3       CT -   CT - HC  
    38     39     86      1 ;    1.0968e+02    3.6208e+02 ;    C25 - C26  - H39      CT -   CT - HC  
    38     39     87      1 ;    1.0968e+02    3.6208e+02 ;    C25 - C26  - H40      CT -   CT - HC  
    38     39     88      1 ;    1.0968e+02    3.6208e+02 ;    C25 - C26  - H41      CT -   CT - HC  
    38     40     89      1 ;    1.0968e+02    3.6208e+02 ;    C25 - C27  - H42      CT -   CT - HC  
    38     40     90      1 ;    1.0968e+02    3.6208e+02 ;    C25 - C27  - H43      CT -   CT - HC  
    38     40     91      1 ;    1.0968e+02    3.6208e+02 ;    C25 - C27  - H44      CT -   CT - HC  
    39     38     40      1 ;    1.1263e+02    5.0099e+02 ;    C26 - C25  - C27      CT -   CT - CT  
    39     38     85      1 ;    1.0968e+02    3.6208e+02 ;    C26 - C25  - H38      CT -   CT - HC  
    40     38     85      1 ;    1.0968e+02    3.6208e+02 ;    C27 - C25  - H38      CT -   CT - HC  
    41     18     52      1 ;    1.0959e+02    3.6217e+02 ;    C28 - C5   - H5       CT -   CT - HC  
    41     42     93      1 ;    1.0968e+02    3.6208e+02 ;    C28 - C29  - H46      CT -   CT - HC  
    41     42     94      1 ;    1.0968e+02    3.6208e+02 ;    C28 - C29  - H47      CT -   CT - HC  
    41     42     95      1 ;    1.0968e+02    3.6208e+02 ;    C28 - C29  - H48      CT -   CT - HC  
    41     43     96      1 ;    1.0968e+02    3.6208e+02 ;    C28 - C30  - H49      CT -   CT - HC  
    41     43     97      1 ;    1.0968e+02    3.6208e+02 ;    C28 - C30  - H50      CT -   CT - HC  
    41     43     98      1 ;    1.0968e+02    3.6208e+02 ;    C28 - C30  - H51      CT -   CT - HC  
    42     41     43      1 ;    1.1263e+02    5.0099e+02 ;    C29 - C28  - C30      CT -   CT - CT  
    42     41     92      1 ;    1.0968e+02    3.6208e+02 ;    C29 - C28  - H45      CT -   CT - HC  
    43     41     92      1 ;    1.0968e+02    3.6208e+02 ;    C30 - C28  - H45      CT -   CT - HC  
    44     15     49      1 ;    1.0959e+02    3.6217e+02 ;    C31 - C2   - H2       CT -   CT - HC  
    44     45    100      1 ;    1.0968e+02    3.6208e+02 ;    C31 - C32  - H53      CT -   CT - HC  
    44     45    101      1 ;    1.0968e+02    3.6208e+02 ;    C31 - C32  - H54      CT -   CT - HC  
    44     45    102      1 ;    1.0968e+02    3.6208e+02 ;    C31 - C32  - H55      CT -   CT - HC  
    44     46    103      1 ;    1.0968e+02    3.6208e+02 ;    C31 - C33  - H56      CT -   CT - HC  
    44     46    104      1 ;    1.0968e+02    3.6208e+02 ;    C31 - C33  - H57      CT -   CT - HC  
    44     46    105      1 ;    1.0968e+02    3.6208e+02 ;    C31 - C33  - H58      CT -   CT - HC  
    45     44     46      1 ;    1.1263e+02    5.0099e+02 ;    C32 - C31  - C33      CT -   CT - CT  
    45     44     99      1 ;    1.0968e+02    3.6208e+02 ;    C32 - C31  - H52      CT -   CT - HC  
    46     44     99      1 ;    1.0968e+02    3.6208e+02 ;    C33 - C31  - H52      CT -   CT - HC  
    53     25     54      1 ;    1.0855e+02    2.9824e+02 ;     H6 - C12  - H7       HC -   CT - HC  
    53     25     55      1 ;    1.0855e+02    2.9824e+02 ;     H6 - C12  - H8       HC -   CT - HC  
    54     25     55      1 ;    1.0855e+02    2.9824e+02 ;     H7 - C12  - H8       HC -   CT - HC  
    56     26     57      1 ;    1.0855e+02    2.9824e+02 ;     H9 - C13  - H10      HC -   CT - HC  
    56     26     58      1 ;    1.0855e+02    2.9824e+02 ;     H9 - C13  - H11      HC -   CT - HC  
    57     26     58      1 ;    1.0855e+02    2.9824e+02 ;    H10 - C13  - H11      HC -   CT - HC  
    59     27     60      1 ;    1.0855e+02    2.9824e+02 ;    H12 - C14  - H13      HC -   CT - HC  
    59     27     61      1 ;    1.0855e+02    2.9824e+02 ;    H12 - C14  - H14      HC -   CT - HC  
    60     27     61      1 ;    1.0855e+02    2.9824e+02 ;    H13 - C14  - H14      HC -   CT - HC  
    63     29     64      1 ;    1.0773e+02    2.9957e+02 ;    H16 - C16  - H17      HC -   CT - HC  
    63     29     65      1 ;    1.0773e+02    2.9957e+02 ;    H16 - C16  - H18      HC -   CT - HC  
    64     29     65      1 ;    1.0773e+02    2.9957e+02 ;    H17 - C16  - H18      HC -   CT - HC  
    66     30     67      1 ;    1.0773e+02    2.9957e+02 ;    H19 - C17  - H20      HC -   CT - HC  
    66     30     68      1 ;    1.0773e+02    2.9957e+02 ;    H19 - C17  - H21      HC -   CT - HC  
    67     30     68      1 ;    1.0773e+02    2.9957e+02 ;    H20 - C17  - H21      HC -   CT - HC  
    70     32     71      1 ;    1.0773e+02    2.9957e+02 ;    H23 - C19  - H24      HC -   CT - HC  
    70     32     72      1 ;    1.0773e+02    2.9957e+02 ;    H23 - C19  - H25      HC -   CT - HC  
    71     32     72      1 ;    1.0773e+02    2.9957e+02 ;    H24 - C19  - H25      HC -   CT - HC  
    73     33     74      1 ;    1.0773e+02    2.9957e+02 ;    H26 - C20  - H27      HC -   CT - HC  
    75     34     76      1 ;    1.0773e+02    2.9957e+02 ;    H28 - C21  - H29      HC -   CT - HC  
    75     34     77      1 ;    1.0773e+02    2.9957e+02 ;    H28 - C21  - H30      HC -   CT - HC  
    76     34     77      1 ;    1.0773e+02    2.9957e+02 ;    H29 - C21  - H30      HC -   CT - HC  
    79     36     80      1 ;    1.0773e+02    2.9957e+02 ;    H32 - C23  - H33      HC -   CT - HC  
    79     36     81      1 ;    1.0773e+02    2.9957e+02 ;    H32 - C23  - H34      HC -   CT - HC  
    80     36     81      1 ;    1.0773e+02    2.9957e+02 ;    H33 - C23  - H34      HC -   CT - HC  
    82     37     83      1 ;    1.0773e+02    2.9957e+02 ;    H35 - C24  - H36      HC -   CT - HC  
    82     37     84      1 ;    1.0773e+02    2.9957e+02 ;    H35 - C24  - H37      HC -   CT - HC  
    83     37     84      1 ;    1.0773e+02    2.9957e+02 ;    H36 - C24  - H37      HC -   CT - HC  
    86     39     87      1 ;    1.0773e+02    2.9957e+02 ;    H39 - C26  - H40      HC -   CT - HC  
    86     39     88      1 ;    1.0773e+02    2.9957e+02 ;    H39 - C26  - H41      HC -   CT - HC  
    87     39     88      1 ;    1.0773e+02    2.9957e+02 ;    H40 - C26  - H41      HC -   CT - HC  
    89     40     90      1 ;    1.0773e+02    2.9957e+02 ;    H42 - C27  - H43      HC -   CT - HC  
    89     40     91      1 ;    1.0773e+02    2.9957e+02 ;    H42 - C27  - H44      HC -   CT - HC  
    90     40     91      1 ;    1.0773e+02    2.9957e+02 ;    H43 - C27  - H44      HC -   CT - HC  
    93     42     94      1 ;    1.0773e+02    2.9957e+02 ;    H46 - C29  - H47      HC -   CT - HC  
    93     42     95      1 ;    1.0773e+02    2.9957e+02 ;    H46 - C29  - H48      HC -   CT - HC  
    94     42     95      1 ;    1.0773e+02    2.9957e+02 ;    H47 - C29  - H48      HC -   CT - HC  
    96     43     97      1 ;    1.0773e+02    2.9957e+02 ;    H49 - C30  - H50      HC -   CT - HC  
    96     43     98      1 ;    1.0773e+02    2.9957e+02 ;    H49 - C30  - H51      HC -   CT - HC  
    97     43     98      1 ;    1.0773e+02    2.9957e+02 ;    H50 - C30  - H51      HC -   CT - HC  
   100     45    101      1 ;    1.0773e+02    2.9957e+02 ;    H53 - C32  - H54      HC -   CT - HC  
   100     45    102      1 ;    1.0773e+02    2.9957e+02 ;    H53 - C32  - H55      HC -   CT - HC  
   101     45    102      1 ;    1.0773e+02    2.9957e+02 ;    H54 - C32  - H55      HC -   CT - HC  
   103     46    104      1 ;    1.0773e+02    2.9957e+02 ;    H56 - C33  - H57      HC -   CT - HC  
   103     46    105      1 ;    1.0773e+02    2.9957e+02 ;    H56 - C33  - H58      HC -   CT - HC  
   104     46    105      1 ;    1.0773e+02    2.9957e+02 ;    H57 - C33  - H58      HC -   CT - HC  

[ dihedrals ] ; propers
; for gromacs 4.5 or higher, using funct 9
;    i      j      k      l   func   phase     kd      pn
     1     17     21      6      9 ;   180.00   0.00000   1 ;      O-    C4-    C8-    O5
     1     17     21      6      9 ;   180.00   0.87864   3 ;      O-    C4-    C8-    O5
     1     17     21      6      9 ;   180.00   4.47688   2 ;      O-    C4-    C8-    O5
     1     17     21     11      9 ;   180.00   0.00000   2 ;      O-    C4-    C8-    N1
     1     17     28     29      9 ;     0.00   0.65084   3 ;      O-    C4-   C15-   C16
     1     17     28     30      9 ;     0.00   0.65084   3 ;      O-    C4-   C15-   C17
     1     17     28     62      9 ;     0.00   0.00000   0 ;      O-    C4-   C15-   H15
     1     17     28     62      9 ;     0.00   1.04600   1 ;      O-    C4-   C15-   H15
     1     20     13     10      9 ;   180.00   0.00000   2 ;      O-    C7-     C-     N
     1     20     13     31      9 ;   180.00   0.00000   2 ;      O-    C7-     C-   C18
     1     20     13     47      9 ;   180.00   0.00000   2 ;      O-    C7-     C-     H
     2     16     19      4      9 ;   180.00   0.00000   1 ;     O1-    C3-    C6-    O3
     2     16     19      4      9 ;   180.00   0.87864   3 ;     O1-    C3-    C6-    O3
     2     16     19      4      9 ;   180.00   4.47688   2 ;     O1-    C3-    C6-    O3
     2     16     19     10      9 ;   180.00   0.00000   2 ;     O1-    C3-    C6-     N
     2     16     38     39      9 ;     0.00   0.65084   3 ;     O1-    C3-   C25-   C26
     2     16     38     40      9 ;     0.00   0.65084   3 ;     O1-    C3-   C25-   C27
     2     16     38     85      9 ;     0.00   0.00000   0 ;     O1-    C3-   C25-   H38
     2     16     38     85      9 ;     0.00   1.04600   1 ;     O1-    C3-   C25-   H38
     2     23     15     12      9 ;   180.00   0.00000   2 ;     O1-   C10-    C2-    N2
     2     23     15     44      9 ;   180.00   0.00000   2 ;     O1-   C10-    C2-   C31
     2     23     15     49      9 ;   180.00   0.00000   2 ;     O1-   C10-    C2-    H2
     3     18     22      7      9 ;   180.00   0.00000   1 ;     O2-    C5-    C9-    O6
     3     18     22      7      9 ;   180.00   0.87864   3 ;     O2-    C5-    C9-    O6
     3     18     22      7      9 ;   180.00   4.47688   2 ;     O2-    C5-    C9-    O6
     3     18     22     12      9 ;   180.00   0.00000   2 ;     O2-    C5-    C9-    N2
     3     18     41     42      9 ;     0.00   0.65084   3 ;     O2-    C5-   C28-   C29
     3     18     41     43      9 ;     0.00   0.65084   3 ;     O2-    C5-   C28-   C30
     3     18     41     92      9 ;     0.00   0.00000   0 ;     O2-    C5-   C28-   H45
     3     18     41     92      9 ;     0.00   1.04600   1 ;     O2-    C5-   C28-   H45
     3     24     14     11      9 ;   180.00   0.00000   2 ;     O2-   C11-    C1-    N1
     3     24     14     35      9 ;   180.00   0.00000   2 ;     O2-   C11-    C1-   C22
     3     24     14     48      9 ;   180.00   0.00000   2 ;     O2-   C11-    C1-    H1
     4     19     10     13      9 ;   180.00  10.46000   2 ;     O3-    C6-     N-     C
     4     19     10     25      9 ;   180.00  10.46000   2 ;     O3-    C6-     N-   C12
     4     19     16     38      9 ;     0.00   2.84512   1 ;     O3-    C6-    C3-   C25
     4     19     16     38      9 ;   180.00   0.83680   2 ;     O3-    C6-    C3-   C25
     4     19     16     38      9 ;   180.00   1.84096   3 ;     O3-    C6-    C3-   C25
     4     19     16     50      9 ;     0.00   3.34720   1 ;     O3-    C6-    C3-    H3
     4     19     16     50      9 ;   180.00   0.33472   3 ;     O3-    C6-    C3-    H3
     5     20     13     10      9 ;   180.00   0.00000   2 ;     O4-    C7-     C-     N
     5     20     13     31      9 ;     0.00   2.84512   1 ;     O4-    C7-     C-   C18
     5     20     13     31      9 ;   180.00   0.83680   2 ;     O4-    C7-     C-   C18
     5     20     13     31      9 ;   180.00   1.84096   3 ;     O4-    C7-     C-   C18
     5     20     13     47      9 ;     0.00   3.34720   1 ;     O4-    C7-     C-     H
     5     20     13     47      9 ;   180.00   0.33472   3 ;     O4-    C7-     C-     H
     6     21     11     14      9 ;   180.00  10.46000   2 ;     O5-    C8-    N1-    C1
     6     21     11     26      9 ;   180.00  10.46000   2 ;     O5-    C8-    N1-   C13
     6     21     17     28      9 ;     0.00   2.84512   1 ;     O5-    C8-    C4-   C15
     6     21     17     28      9 ;   180.00   0.83680   2 ;     O5-    C8-    C4-   C15
     6     21     17     28      9 ;   180.00   1.84096   3 ;     O5-    C8-    C4-   C15
     6     21     17     51      9 ;     0.00   3.34720   1 ;     O5-    C8-    C4-    H4
     6     21     17     51      9 ;   180.00   0.33472   3 ;     O5-    C8-    C4-    H4
     7     22     12     15      9 ;   180.00  10.46000   2 ;     O6-    C9-    N2-    C2
     7     22     12     27      9 ;   180.00  10.46000   2 ;     O6-    C9-    N2-   C14
     7     22     18     41      9 ;     0.00   2.84512   1 ;     O6-    C9-    C5-   C28
     7     22     18     41      9 ;   180.00   0.83680   2 ;     O6-    C9-    C5-   C28
     7     22     18     41      9 ;   180.00   1.84096   3 ;     O6-    C9-    C5-   C28
     7     22     18     52      9 ;     0.00   3.34720   1 ;     O6-    C9-    C5-    H5
     7     22     18     52      9 ;   180.00   0.33472   3 ;     O6-    C9-    C5-    H5
     8     23      2     16      9 ;   180.00   5.85760   1 ;     O7-   C10-    O1-    C3
     8     23      2     16      9 ;   180.00  11.29680   2 ;     O7-   C10-    O1-    C3
     8     23     15     12      9 ;   180.00   0.00000   2 ;     O7-   C10-    C2-    N2
     8     23     15     44      9 ;     0.00   2.84512   1 ;     O7-   C10-    C2-   C31
     8     23     15     44      9 ;   180.00   0.83680   2 ;     O7-   C10-    C2-   C31
     8     23     15     44      9 ;   180.00   1.84096   3 ;     O7-   C10-    C2-   C31
     8     23     15     49      9 ;     0.00   3.34720   1 ;     O7-   C10-    C2-    H2
     8     23     15     49      9 ;   180.00   0.33472   3 ;     O7-   C10-    C2-    H2
     9     24      3     18      9 ;   180.00   5.85760   1 ;     O8-   C11-    O2-    C5
     9     24      3     18      9 ;   180.00  11.29680   2 ;     O8-   C11-    O2-    C5
     9     24     14     11      9 ;   180.00   0.00000   2 ;     O8-   C11-    C1-    N1
     9     24     14     35      9 ;     0.00   2.84512   1 ;     O8-   C11-    C1-   C22
     9     24     14     35      9 ;   180.00   0.83680   2 ;     O8-   C11-    C1-   C22
     9     24     14     35      9 ;   180.00   1.84096   3 ;     O8-   C11-    C1-   C22
     9     24     14     48      9 ;     0.00   3.34720   1 ;     O8-   C11-    C1-    H1
     9     24     14     48      9 ;   180.00   0.33472   3 ;     O8-   C11-    C1-    H1
    10     13     31     32      9 ;     0.00   0.41840   3 ;      N-     C-   C18-   C19
    10     13     31     33      9 ;     0.00   0.41840   3 ;      N-     C-   C18-   C20
    10     13     31     69      9 ;     0.00   0.65084   3 ;      N-     C-   C18-   H22
    10     19     16     38      9 ;   180.00   0.00000   4 ;      N-    C6-    C3-   C25
    10     19     16     38      9 ;   180.00   2.97064   2 ;      N-    C6-    C3-   C25
    10     19     16     50      9 ;   180.00   0.00000   2 ;      N-    C6-    C3-    H3
    11     14     35     36      9 ;     0.00   0.41840   3 ;     N1-    C1-   C22-   C23
    11     14     35     37      9 ;     0.00   0.41840   3 ;     N1-    C1-   C22-   C24
    11     14     35     78      9 ;     0.00   0.65084   3 ;     N1-    C1-   C22-   H31
    11     21     17     28      9 ;   180.00   0.00000   4 ;     N1-    C8-    C4-   C15
    11     21     17     28      9 ;   180.00   2.97064   2 ;     N1-    C8-    C4-   C15
    11     21     17     51      9 ;   180.00   0.00000   2 ;     N1-    C8-    C4-    H4
    12     15     44     45      9 ;     0.00   0.41840   3 ;     N2-    C2-   C31-   C32
    12     15     44     46      9 ;     0.00   0.41840   3 ;     N2-    C2-   C31-   C33
    12     15     44     99      9 ;     0.00   0.65084   3 ;     N2-    C2-   C31-   H52
    12     22     18     41      9 ;   180.00   0.00000   4 ;     N2-    C9-    C5-   C28
    12     22     18     41      9 ;   180.00   2.97064   2 ;     N2-    C9-    C5-   C28
    12     22     18     52      9 ;   180.00   0.00000   2 ;     N2-    C9-    C5-    H5
    13     10     19     16      9 ;     0.00   2.09200   3 ;      C-     N-    C6-    C3
    13     10     19     16      9 ;     0.00  12.25912   1 ;      C-     N-    C6-    C3
    13     10     19     16      9 ;   180.00   5.89944   2 ;      C-     N-    C6-    C3
    13     10     25     53      9 ;     0.00   0.00000   0 ;      C-     N-   C12-    H6
    13     10     25     54      9 ;     0.00   0.00000   0 ;      C-     N-   C12-    H7
    13     10     25     55      9 ;     0.00   0.00000   0 ;      C-     N-   C12-    H8
    13     31     32     70      9 ;     0.00   0.54392   3 ;      C-   C18-   C19-   H23
    13     31     32     71      9 ;     0.00   0.54392   3 ;      C-   C18-   C19-   H24
    13     31     32     72      9 ;     0.00   0.54392   3 ;      C-   C18-   C19-   H25
    13     31     33     34      9 ;     0.00   2.17568   3 ;      C-   C18-   C20-   C21
    13     31     33     73      9 ;     0.00   0.54392   3 ;      C-   C18-   C20-   H26
    13     31     33     74      9 ;     0.00   0.54392   3 ;      C-   C18-   C20-   H27
    14     11     21     17      9 ;     0.00   2.09200   3 ;     C1-    N1-    C8-    C4
    14     11     21     17      9 ;     0.00  12.25912   1 ;     C1-    N1-    C8-    C4
    14     11     21     17      9 ;   180.00   5.89944   2 ;     C1-    N1-    C8-    C4
    14     11     26     56      9 ;     0.00   0.00000   0 ;     C1-    N1-   C13-    H9
    14     11     26     57      9 ;     0.00   0.00000   0 ;     C1-    N1-   C13-   H10
    14     11     26     58      9 ;     0.00   0.00000   0 ;     C1-    N1-   C13-   H11
    14     24      3     18      9 ;     0.00   3.13800   3 ;     C1-   C11-    O2-    C5
    14     24      3     18      9 ;   180.00   7.90776   1 ;     C1-   C11-    O2-    C5
    14     24      3     18      9 ;   180.00  13.76536   2 ;     C1-   C11-    O2-    C5
    14     35     36     79      9 ;     0.00   0.54392   3 ;     C1-   C22-   C23-   H32
    14     35     36     80      9 ;     0.00   0.54392   3 ;     C1-   C22-   C23-   H33
    14     35     36     81      9 ;     0.00   0.54392   3 ;     C1-   C22-   C23-   H34
    14     35     37     82      9 ;     0.00   0.54392   3 ;     C1-   C22-   C24-   H35
    14     35     37     83      9 ;     0.00   0.54392   3 ;     C1-   C22-   C24-   H36
    14     35     37     84      9 ;     0.00   0.54392   3 ;     C1-   C22-   C24-   H37
    15     12     22     18      9 ;     0.00   2.09200   3 ;     C2-    N2-    C9-    C5
    15     12     22     18      9 ;     0.00  12.25912   1 ;     C2-    N2-    C9-    C5
    15     12     22     18      9 ;   180.00   5.89944   2 ;     C2-    N2-    C9-    C5
    15     12     27     59      9 ;     0.00   0.00000   0 ;     C2-    N2-   C14-   H12
    15     12     27     60      9 ;     0.00   0.00000   0 ;     C2-    N2-   C14-   H13
    15     12     27     61      9 ;     0.00   0.00000   0 ;     C2-    N2-   C14-   H14
    15     23      2     16      9 ;     0.00   3.13800   3 ;     C2-   C10-    O1-    C3
    15     23      2     16      9 ;   180.00   7.90776   1 ;     C2-   C10-    O1-    C3
    15     23      2     16      9 ;   180.00  13.76536   2 ;     C2-   C10-    O1-    C3
    15     44     45    100      9 ;     0.00   0.54392   3 ;     C2-   C31-   C32-   H53
    15     44     45    101      9 ;     0.00   0.54392   3 ;     C2-   C31-   C32-   H54
    15     44     45    102      9 ;     0.00   0.54392   3 ;     C2-   C31-   C32-   H55
    15     44     46    103      9 ;     0.00   0.54392   3 ;     C2-   C31-   C33-   H56
    15     44     46    104      9 ;     0.00   0.54392   3 ;     C2-   C31-   C33-   H57
    15     44     46    105      9 ;     0.00   0.54392   3 ;     C2-   C31-   C33-   H58
    16     19     10     25      9 ;     0.00   2.09200   3 ;     C3-    C6-     N-   C12
    16     19     10     25      9 ;     0.00  12.25912   1 ;     C3-    C6-     N-   C12
    16     19     10     25      9 ;   180.00   5.89944   2 ;     C3-    C6-     N-   C12
    16     38     39     86      9 ;     0.00   0.54392   3 ;     C3-   C25-   C26-   H39
    16     38     39     87      9 ;     0.00   0.54392   3 ;     C3-   C25-   C26-   H40
    16     38     39     88      9 ;     0.00   0.54392   3 ;     C3-   C25-   C26-   H41
    16     38     40     89      9 ;     0.00   0.54392   3 ;     C3-   C25-   C27-   H42
    16     38     40     90      9 ;     0.00   0.54392   3 ;     C3-   C25-   C27-   H43
    16     38     40     91      9 ;     0.00   0.54392   3 ;     C3-   C25-   C27-   H44
    17      1     20      5      9 ;   180.00   5.85760   1 ;     C4-     O-    C7-    O4
    17      1     20      5      9 ;   180.00  11.29680   2 ;     C4-     O-    C7-    O4
    17      1     20     13      9 ;     0.00   3.13800   3 ;     C4-     O-    C7-     C
    17      1     20     13      9 ;   180.00   7.90776   1 ;     C4-     O-    C7-     C
    17      1     20     13      9 ;   180.00  13.76536   2 ;     C4-     O-    C7-     C
    17     21     11     26      9 ;     0.00   2.09200   3 ;     C4-    C8-    N1-   C13
    17     21     11     26      9 ;     0.00  12.25912   1 ;     C4-    C8-    N1-   C13
    17     21     11     26      9 ;   180.00   5.89944   2 ;     C4-    C8-    N1-   C13
    17     28     29     63      9 ;     0.00   0.54392   3 ;     C4-   C15-   C16-   H16
    17     28     29     64      9 ;     0.00   0.54392   3 ;     C4-   C15-   C16-   H17
    17     28     29     65      9 ;     0.00   0.54392   3 ;     C4-   C15-   C16-   H18
    17     28     30     66      9 ;     0.00   0.54392   3 ;     C4-   C15-   C17-   H19
    17     28     30     67      9 ;     0.00   0.54392   3 ;     C4-   C15-   C17-   H20
    17     28     30     68      9 ;     0.00   0.54392   3 ;     C4-   C15-   C17-   H21
    18     22     12     27      9 ;     0.00   2.09200   3 ;     C5-    C9-    N2-   C14
    18     22     12     27      9 ;     0.00  12.25912   1 ;     C5-    C9-    N2-   C14
    18     22     12     27      9 ;   180.00   5.89944   2 ;     C5-    C9-    N2-   C14
    18     41     42     93      9 ;     0.00   0.54392   3 ;     C5-   C28-   C29-   H46
    18     41     42     94      9 ;     0.00   0.54392   3 ;     C5-   C28-   C29-   H47
    18     41     42     95      9 ;     0.00   0.54392   3 ;     C5-   C28-   C29-   H48
    18     41     43     96      9 ;     0.00   0.54392   3 ;     C5-   C28-   C30-   H49
    18     41     43     97      9 ;     0.00   0.54392   3 ;     C5-   C28-   C30-   H50
    18     41     43     98      9 ;     0.00   0.54392   3 ;     C5-   C28-   C30-   H51
    19     10     13     20      9 ;     0.00   2.67776   1 ;     C6-     N-     C-    C7
    19     10     13     20      9 ;   180.00   1.63176   2 ;     C6-     N-     C-    C7
    19     10     13     31      9 ;     0.00   9.45584   1 ;     C6-     N-     C-   C18
    19     10     13     31      9 ;   180.00   0.12552   3 ;     C6-     N-     C-   C18
    19     10     13     31      9 ;   180.00   2.71960   4 ;     C6-     N-     C-   C18
    19     10     13     47      9 ;   180.00   0.00000   2 ;     C6-     N-     C-     H
    19     10     25     53      9 ;   180.00   0.00000   2 ;     C6-     N-   C12-    H6
    19     10     25     54      9 ;   180.00   0.00000   2 ;     C6-     N-   C12-    H7
    19     10     25     55      9 ;   180.00   0.00000   2 ;     C6-     N-   C12-    H8
    19     16      2     23      9 ;     0.00   1.60387   3 ;     C6-    C3-    O1-   C10
    19     16     38     39      9 ;     0.00   0.00000   0 ;     C6-    C3-   C25-   C26
    19     16     38     39      9 ;     0.00   0.16736   2 ;     C6-    C3-   C25-   C26
    19     16     38     39      9 ;   180.00   1.92464   1 ;     C6-    C3-   C25-   C26
    19     16     38     40      9 ;     0.00   0.00000   0 ;     C6-    C3-   C25-   C27
    19     16     38     40      9 ;     0.00   0.16736   2 ;     C6-    C3-   C25-   C27
    19     16     38     40      9 ;   180.00   1.92464   1 ;     C6-    C3-   C25-   C27
    19     16     38     85      9 ;     0.00   0.65084   3 ;     C6-    C3-   C25-   H38
    20      1     17     21      9 ;     0.00   1.60387   3 ;     C7-     O-    C4-    C8
    20      1     17     28      9 ;     0.00   1.60247   3 ;     C7-     O-    C4-   C15
    20      1     17     28      9 ;   180.00   3.34720   1 ;     C7-     O-    C4-   C15
    20      1     17     51      9 ;     0.00   1.60387   3 ;     C7-     O-    C4-    H4
    20     13     10     25      9 ;     0.00   0.00000   0 ;     C7-     C-     N-   C12
    20     13     31     32      9 ;     0.00   0.00000   0 ;     C7-     C-   C18-   C19
    20     13     31     32      9 ;     0.00   0.16736   2 ;     C7-     C-   C18-   C19
    20     13     31     32      9 ;   180.00   1.92464   1 ;     C7-     C-   C18-   C19
    20     13     31     33      9 ;     0.00   0.00000   0 ;     C7-     C-   C18-   C20
    20     13     31     33      9 ;     0.00   0.16736   2 ;     C7-     C-   C18-   C20
    20     13     31     33      9 ;   180.00   1.92464   1 ;     C7-     C-   C18-   C20
    20     13     31     69      9 ;     0.00   0.65084   3 ;     C7-     C-   C18-   H22
    21     11     14     24      9 ;     0.00   2.67776   1 ;     C8-    N1-    C1-   C11
    21     11     14     24      9 ;   180.00   1.63176   2 ;     C8-    N1-    C1-   C11
    21     11     14     35      9 ;     0.00   9.45584   1 ;     C8-    N1-    C1-   C22
    21     11     14     35      9 ;   180.00   0.12552   3 ;     C8-    N1-    C1-   C22
    21     11     14     35      9 ;   180.00   2.71960   4 ;     C8-    N1-    C1-   C22
    21     11     14     48      9 ;   180.00   0.00000   2 ;     C8-    N1-    C1-    H1
    21     11     26     56      9 ;   180.00   0.00000   2 ;     C8-    N1-   C13-    H9
    21     11     26     57      9 ;   180.00   0.00000   2 ;     C8-    N1-   C13-   H10
    21     11     26     58      9 ;   180.00   0.00000   2 ;     C8-    N1-   C13-   H11
    21     17     28     29      9 ;     0.00   0.00000   0 ;     C8-    C4-   C15-   C16
    21     17     28     29      9 ;     0.00   0.16736   2 ;     C8-    C4-   C15-   C16
    21     17     28     29      9 ;   180.00   1.92464   1 ;     C8-    C4-   C15-   C16
    21     17     28     30      9 ;     0.00   0.00000   0 ;     C8-    C4-   C15-   C17
    21     17     28     30      9 ;     0.00   0.16736   2 ;     C8-    C4-   C15-   C17
    21     17     28     30      9 ;   180.00   1.92464   1 ;     C8-    C4-   C15-   C17
    21     17     28     62      9 ;     0.00   0.65084   3 ;     C8-    C4-   C15-   H15
    22     12     15     23      9 ;     0.00   2.67776   1 ;     C9-    N2-    C2-   C10
    22     12     15     23      9 ;   180.00   1.63176   2 ;     C9-    N2-    C2-   C10
    22     12     15     44      9 ;     0.00   9.45584   1 ;     C9-    N2-    C2-   C31
    22     12     15     44      9 ;   180.00   0.12552   3 ;     C9-    N2-    C2-   C31
    22     12     15     44      9 ;   180.00   2.71960   4 ;     C9-    N2-    C2-   C31
    22     12     15     49      9 ;   180.00   0.00000   2 ;     C9-    N2-    C2-    H2
    22     12     27     59      9 ;   180.00   0.00000   2 ;     C9-    N2-   C14-   H12
    22     12     27     60      9 ;   180.00   0.00000   2 ;     C9-    N2-   C14-   H13
    22     12     27     61      9 ;   180.00   0.00000   2 ;     C9-    N2-   C14-   H14
    22     18      3     24      9 ;     0.00   1.60387   3 ;     C9-    C5-    O2-   C11
    22     18     41     42      9 ;     0.00   0.00000   0 ;     C9-    C5-   C28-   C29
    22     18     41     42      9 ;     0.00   0.16736   2 ;     C9-    C5-   C28-   C29
    22     18     41     42      9 ;   180.00   1.92464   1 ;     C9-    C5-   C28-   C29
    22     18     41     43      9 ;     0.00   0.00000   0 ;     C9-    C5-   C28-   C30
    22     18     41     43      9 ;     0.00   0.16736   2 ;     C9-    C5-   C28-   C30
    22     18     41     43      9 ;   180.00   1.92464   1 ;     C9-    C5-   C28-   C30
    22     18     41     92      9 ;     0.00   0.65084   3 ;     C9-    C5-   C28-   H45
    23      2     16     38      9 ;     0.00   1.60247   3 ;    C10-    O1-    C3-   C25
    23      2     16     38      9 ;   180.00   3.34720   1 ;    C10-    O1-    C3-   C25
    23      2     16     50      9 ;     0.00   1.60387   3 ;    C10-    O1-    C3-    H3
    23     15     12     27      9 ;     0.00   0.00000   0 ;    C10-    C2-    N2-   C14
    23     15     44     45      9 ;     0.00   0.00000   0 ;    C10-    C2-   C31-   C32
    23     15     44     45      9 ;     0.00   0.16736   2 ;    C10-    C2-   C31-   C32
    23     15     44     45      9 ;   180.00   1.92464   1 ;    C10-    C2-   C31-   C32
    23     15     44     46      9 ;     0.00   0.00000   0 ;    C10-    C2-   C31-   C33
    23     15     44     46      9 ;     0.00   0.16736   2 ;    C10-    C2-   C31-   C33
    23     15     44     46      9 ;   180.00   1.92464   1 ;    C10-    C2-   C31-   C33
    23     15     44     99      9 ;     0.00   0.65084   3 ;    C10-    C2-   C31-   H52
    24      3     18     41      9 ;     0.00   1.60247   3 ;    C11-    O2-    C5-   C28
    24      3     18     41      9 ;   180.00   3.34720   1 ;    C11-    O2-    C5-   C28
    24      3     18     52      9 ;     0.00   1.60387   3 ;    C11-    O2-    C5-    H5
    24     14     11     26      9 ;     0.00   0.00000   0 ;    C11-    C1-    N1-   C13
    24     14     35     36      9 ;     0.00   0.00000   0 ;    C11-    C1-   C22-   C23
    24     14     35     36      9 ;     0.00   0.16736   2 ;    C11-    C1-   C22-   C23
    24     14     35     36      9 ;   180.00   1.92464   1 ;    C11-    C1-   C22-   C23
    24     14     35     37      9 ;     0.00   0.00000   0 ;    C11-    C1-   C22-   C24
    24     14     35     37      9 ;     0.00   0.16736   2 ;    C11-    C1-   C22-   C24
    24     14     35     37      9 ;   180.00   1.92464   1 ;    C11-    C1-   C22-   C24
    24     14     35     78      9 ;     0.00   0.65084   3 ;    C11-    C1-   C22-   H31
    25     10     13     31      9 ;     0.00   0.00000   0 ;    C12-     N-     C-   C18
    25     10     13     47      9 ;     0.00   0.00000   0 ;    C12-     N-     C-     H
    26     11     14     35      9 ;     0.00   0.00000   0 ;    C13-    N1-    C1-   C22
    26     11     14     48      9 ;     0.00   0.00000   0 ;    C13-    N1-    C1-    H1
    27     12     15     44      9 ;     0.00   0.00000   0 ;    C14-    N2-    C2-   C31
    27     12     15     49      9 ;     0.00   0.00000   0 ;    C14-    N2-    C2-    H2
    29     28     17     51      9 ;     0.00   0.65084   3 ;    C16-   C15-    C4-    H4
    29     28     30     66      9 ;     0.00   0.54392   3 ;    C16-   C15-   C17-   H19
    29     28     30     67      9 ;     0.00   0.54392   3 ;    C16-   C15-   C17-   H20
    29     28     30     68      9 ;     0.00   0.54392   3 ;    C16-   C15-   C17-   H21
    30     28     17     51      9 ;     0.00   0.65084   3 ;    C17-   C15-    C4-    H4
    30     28     29     63      9 ;     0.00   0.54392   3 ;    C17-   C15-   C16-   H16
    30     28     29     64      9 ;     0.00   0.54392   3 ;    C17-   C15-   C16-   H17
    30     28     29     65      9 ;     0.00   0.54392   3 ;    C17-   C15-   C16-   H18
    31     33     34     75      9 ;     0.00   0.54392   3 ;    C18-   C20-   C21-   H28
    31     33     34     76      9 ;     0.00   0.54392   3 ;    C18-   C20-   C21-   H29
    31     33     34     77      9 ;     0.00   0.54392   3 ;    C18-   C20-   C21-   H30
    32     31     13     47      9 ;     0.00   0.65084   3 ;    C19-   C18-     C-     H
    32     31     33     34      9 ;     0.00   2.17568   3 ;    C19-   C18-   C20-   C21
    32     31     33     73      9 ;     0.00   0.54392   3 ;    C19-   C18-   C20-   H26
    32     31     33     74      9 ;     0.00   0.54392   3 ;    C19-   C18-   C20-   H27
    33     31     13     47      9 ;     0.00   0.65084   3 ;    C20-   C18-     C-     H
    33     31     32     70      9 ;     0.00   0.54392   3 ;    C20-   C18-   C19-   H23
    33     31     32     71      9 ;     0.00   0.54392   3 ;    C20-   C18-   C19-   H24
    33     31     32     72      9 ;     0.00   0.54392   3 ;    C20-   C18-   C19-   H25
    34     33     31     69      9 ;     0.00   0.54392   3 ;    C21-   C20-   C18-   H22
    36     35     14     48      9 ;     0.00   0.65084   3 ;    C23-   C22-    C1-    H1
    36     35     37     82      9 ;     0.00   0.54392   3 ;    C23-   C22-   C24-   H35
    36     35     37     83      9 ;     0.00   0.54392   3 ;    C23-   C22-   C24-   H36
    36     35     37     84      9 ;     0.00   0.54392   3 ;    C23-   C22-   C24-   H37
    37     35     14     48      9 ;     0.00   0.65084   3 ;    C24-   C22-    C1-    H1
    37     35     36     79      9 ;     0.00   0.54392   3 ;    C24-   C22-   C23-   H32
    37     35     36     80      9 ;     0.00   0.54392   3 ;    C24-   C22-   C23-   H33
    37     35     36     81      9 ;     0.00   0.54392   3 ;    C24-   C22-   C23-   H34
    39     38     16     50      9 ;     0.00   0.65084   3 ;    C26-   C25-    C3-    H3
    39     38     40     89      9 ;     0.00   0.54392   3 ;    C26-   C25-   C27-   H42
    39     38     40     90      9 ;     0.00   0.54392   3 ;    C26-   C25-   C27-   H43
    39     38     40     91      9 ;     0.00   0.54392   3 ;    C26-   C25-   C27-   H44
    40     38     16     50      9 ;     0.00   0.65084   3 ;    C27-   C25-    C3-    H3
    40     38     39     86      9 ;     0.00   0.54392   3 ;    C27-   C25-   C26-   H39
    40     38     39     87      9 ;     0.00   0.54392   3 ;    C27-   C25-   C26-   H40
    40     38     39     88      9 ;     0.00   0.54392   3 ;    C27-   C25-   C26-   H41
    42     41     18     52      9 ;     0.00   0.65084   3 ;    C29-   C28-    C5-    H5
    42     41     43     96      9 ;     0.00   0.54392   3 ;    C29-   C28-   C30-   H49
    42     41     43     97      9 ;     0.00   0.54392   3 ;    C29-   C28-   C30-   H50
    42     41     43     98      9 ;     0.00   0.54392   3 ;    C29-   C28-   C30-   H51
    43     41     18     52      9 ;     0.00   0.65084   3 ;    C30-   C28-    C5-    H5
    43     41     42     93      9 ;     0.00   0.54392   3 ;    C30-   C28-   C29-   H46
    43     41     42     94      9 ;     0.00   0.54392   3 ;    C30-   C28-   C29-   H47
    43     41     42     95      9 ;     0.00   0.54392   3 ;    C30-   C28-   C29-   H48
    45     44     15     49      9 ;     0.00   0.65084   3 ;    C32-   C31-    C2-    H2
    45     44     46    103      9 ;     0.00   0.54392   3 ;    C32-   C31-   C33-   H56
    45     44     46    104      9 ;     0.00   0.54392   3 ;    C32-   C31-   C33-   H57
    45     44     46    105      9 ;     0.00   0.54392   3 ;    C32-   C31-   C33-   H58
    46     44     15     49      9 ;     0.00   0.65084   3 ;    C33-   C31-    C2-    H2
    46     44     45    100      9 ;     0.00   0.54392   3 ;    C33-   C31-   C32-   H53
    46     44     45    101      9 ;     0.00   0.54392   3 ;    C33-   C31-   C32-   H54
    46     44     45    102      9 ;     0.00   0.54392   3 ;    C33-   C31-   C32-   H55
    47     13     31     69      9 ;     0.00   0.65084   3 ;      H-     C-   C18-   H22
    48     14     35     78      9 ;     0.00   0.65084   3 ;     H1-    C1-   C22-   H31
    49     15     44     99      9 ;     0.00   0.65084   3 ;     H2-    C2-   C31-   H52
    50     16     38     85      9 ;     0.00   0.65084   3 ;     H3-    C3-   C25-   H38
    51     17     28     62      9 ;     0.00   0.65084   3 ;     H4-    C4-   C15-   H15
    52     18     41     92      9 ;     0.00   0.65084   3 ;     H5-    C5-   C28-   H45
    62     28     29     63      9 ;     0.00   0.50208   3 ;    H15-   C15-   C16-   H16
    62     28     29     64      9 ;     0.00   0.50208   3 ;    H15-   C15-   C16-   H17
    62     28     29     65      9 ;     0.00   0.50208   3 ;    H15-   C15-   C16-   H18
    62     28     30     66      9 ;     0.00   0.50208   3 ;    H15-   C15-   C17-   H19
    62     28     30     67      9 ;     0.00   0.50208   3 ;    H15-   C15-   C17-   H20
    62     28     30     68      9 ;     0.00   0.50208   3 ;    H15-   C15-   C17-   H21
    69     31     32     70      9 ;     0.00   0.50208   3 ;    H22-   C18-   C19-   H23
    69     31     32     71      9 ;     0.00   0.50208   3 ;    H22-   C18-   C19-   H24
    69     31     32     72      9 ;     0.00   0.50208   3 ;    H22-   C18-   C19-   H25
    69     31     33     73      9 ;     0.00   0.50208   3 ;    H22-   C18-   C20-   H26
    69     31     33     74      9 ;     0.00   0.50208   3 ;    H22-   C18-   C20-   H27
    73     33     34     75      9 ;     0.00   0.50208   3 ;    H26-   C20-   C21-   H28
    73     33     34     76      9 ;     0.00   0.50208   3 ;    H26-   C20-   C21-   H29
    73     33     34     77      9 ;     0.00   0.50208   3 ;    H26-   C20-   C21-   H30
    74     33     34     75      9 ;     0.00   0.50208   3 ;    H27-   C20-   C21-   H28
    74     33     34     76      9 ;     0.00   0.50208   3 ;    H27-   C20-   C21-   H29
    74     33     34     77      9 ;     0.00   0.50208   3 ;    H27-   C20-   C21-   H30
    78     35     36     79      9 ;     0.00   0.50208   3 ;    H31-   C22-   C23-   H32
    78     35     36     80      9 ;     0.00   0.50208   3 ;    H31-   C22-   C23-   H33
    78     35     36     81      9 ;     0.00   0.50208   3 ;    H31-   C22-   C23-   H34
    78     35     37     82      9 ;     0.00   0.50208   3 ;    H31-   C22-   C24-   H35
    78     35     37     83      9 ;     0.00   0.50208   3 ;    H31-   C22-   C24-   H36
    78     35     37     84      9 ;     0.00   0.50208   3 ;    H31-   C22-   C24-   H37
    85     38     39     86      9 ;     0.00   0.50208   3 ;    H38-   C25-   C26-   H39
    85     38     39     87      9 ;     0.00   0.50208   3 ;    H38-   C25-   C26-   H40
    85     38     39     88      9 ;     0.00   0.50208   3 ;    H38-   C25-   C26-   H41
    85     38     40     89      9 ;     0.00   0.50208   3 ;    H38-   C25-   C27-   H42
    85     38     40     90      9 ;     0.00   0.50208   3 ;    H38-   C25-   C27-   H43
    85     38     40     91      9 ;     0.00   0.50208   3 ;    H38-   C25-   C27-   H44
    92     41     42     93      9 ;     0.00   0.50208   3 ;    H45-   C28-   C29-   H46
    92     41     42     94      9 ;     0.00   0.50208   3 ;    H45-   C28-   C29-   H47
    92     41     42     95      9 ;     0.00   0.50208   3 ;    H45-   C28-   C29-   H48
    92     41     43     96      9 ;     0.00   0.50208   3 ;    H45-   C28-   C30-   H49
    92     41     43     97      9 ;     0.00   0.50208   3 ;    H45-   C28-   C30-   H50
    92     41     43     98      9 ;     0.00   0.50208   3 ;    H45-   C28-   C30-   H51
    99     44     45    100      9 ;     0.00   0.50208   3 ;    H52-   C31-   C32-   H53
    99     44     45    101      9 ;     0.00   0.50208   3 ;    H52-   C31-   C32-   H54
    99     44     45    102      9 ;     0.00   0.50208   3 ;    H52-   C31-   C32-   H55
    99     44     46    103      9 ;     0.00   0.50208   3 ;    H52-   C31-   C33-   H56
    99     44     46    104      9 ;     0.00   0.50208   3 ;    H52-   C31-   C33-   H57
    99     44     46    105      9 ;     0.00   0.50208   3 ;    H52-   C31-   C33-   H58

[ dihedrals ] ; impropers
; treated as propers in GROMACS to use correct AMBER analytical function
;    i      j      k      l   func   phase     kd      pn
     1     20      5     13      4 ;   180.00   4.60240   2 ;      O-    C7-    O4-     C
    14      9     24      3      4 ;   180.00   4.60240   2 ;     C1-    O8-   C11-    O2
    15      8     23      2      4 ;   180.00   4.60240   2 ;     C2-    O7-   C10-    O1
    16     10     19      4      4 ;   180.00  43.93200   2 ;     C3-     N-    C6-    O3
    17     11     21      6      4 ;   180.00  43.93200   2 ;     C4-    N1-    C8-    O5
    18     12     22      7      4 ;   180.00  43.93200   2 ;     C5-    N2-    C9-    O6
    19     13     10     25      4 ;   180.00   4.60240   2 ;     C6-     C-     N-   C12
    21     14     11     26      4 ;   180.00   4.60240   2 ;     C8-    C1-    N1-   C13
    22     15     12     27      4 ;   180.00   4.60240   2 ;     C9-    C2-    N2-   C14
