h1ibp_GMX.gro created by acpype (v: 2023.10.27) on Thu Sep  4 07:59:30 2025
 33
    1  UNL    C    1   0.418  -1.146   0.950
    1  UNL   C1    2   0.494  -1.232   0.872
    1  UNL   C2    3   0.512  -1.205   0.737
    1  UNL   C3    4   0.454  -1.093   0.681
    1  UNL   C4    5   0.379  -1.007   0.759
    1  UNL   C5    6   0.360  -1.035   0.893
    1  UNL   C6    7   0.398  -1.176   1.096
    1  UNL   C7    8   0.249  -1.170   1.129
    1  UNL   C8    9   0.472  -1.073   1.178
    1  UNL    O   10   0.414  -1.011   1.264
    1  UNL   O1   11   0.603  -1.051   1.156
    1  UNL    H   12   0.641  -0.965   1.179
    1  UNL   C9   13   0.474  -1.064   0.534
    1  UNL  C10   14   0.407  -1.173   0.451
    1  UNL  C11   15   0.267  -1.126   0.409
    1  UNL  C12   16   0.491  -1.201   0.326
    1  UNL   H1   17   0.537  -1.315   0.914
    1  UNL   H2   18   0.569  -1.268   0.679
    1  UNL   H3   19   0.336  -0.923   0.717
    1  UNL   H4   20   0.303  -0.971   0.951
    1  UNL   H5   21   0.436  -1.273   1.118
    1  UNL   H6   22   0.211  -1.073   1.107
    1  UNL   H7   23   0.235  -1.191   1.233
    1  UNL   H8   24   0.197  -1.243   1.071
    1  UNL   H9   25   0.579  -1.061   0.512
    1  UNL  H10   26   0.430  -0.969   0.511
    1  UNL  H11   27   0.398  -1.262   0.509
    1  UNL  H12   28   0.276  -1.037   0.351
    1  UNL  H13   29   0.208  -1.106   0.496
    1  UNL  H14   30   0.220  -1.202   0.351
    1  UNL  H15   31   0.499  -1.112   0.268
    1  UNL  H16   32   0.444  -1.277   0.268
    1  UNL  H17   33   0.588  -1.233   0.356
    8.89000     7.84200    19.91800
