%VERSION  VERSION_STAMP = V0001.000  DATE = 09/04/25  07:59:43                  
%FLAG TITLE                                                                     
%FORMAT(20a4)                                                                   
IBP-Site1_1h.pdb                                                                
%FLAG POINTERS                                                                  
%FORMAT(10I8)                                                                   
      33       7      18      15      38      20      64      27       0       0
     174       1      15      20      27       9      15      17       8       0
       0       0       0       0       0       0       0       0      33       0
       0
%FLAG ATOM_NAME                                                                 
%FORMAT(20a4)                                                                   
C   C1  C2  C3  C4  C5  C6  C7  C8  O   O1  H   C9  C10 C11 C12 H1  H2  H3  H4  
H5  H6  H7  H8  H9  H10 H11 H12 H13 H14 H15 H16 H17 
%FLAG CHARGE                                                                    
%FORMAT(5E16.8)                                                                 
 -1.80947439E+00 -2.05911990E+00 -2.36889900E+00 -1.20813849E+00 -2.36889900E+00
 -2.05911990E+00 -1.00951542E+00 -1.64182923E+00  1.16823165E+01 -1.00769319E+01
 -1.10445360E+01  8.07247890E+00 -6.94269630E-01 -1.16076051E+00 -1.67827383E+00
 -1.67827383E+00  2.60578890E+00  2.46001050E+00  2.46001050E+00  2.60578890E+00
  1.56165111E+00  9.29938636E-01  9.29938636E-01  9.29938636E-01  9.14759460E-01
  9.14759460E-01  9.23870610E-01  6.41424960E-01  6.41424960E-01  6.41424960E-01
  6.41424960E-01  6.41424960E-01  6.41424960E-01
%FLAG ATOMIC_NUMBER                                                             
%FORMAT(10I8)                                                                   
       6       6       6       6       6       6       6       6       6       8
       8       1       6       6       6       6       1       1       1       1
       1       1       1       1       1       1       1       1       1       1
       1       1       1
%FLAG MASS                                                                      
%FORMAT(5E16.8)                                                                 
  1.20100000E+01  1.20100000E+01  1.20100000E+01  1.20100000E+01  1.20100000E+01
  1.20100000E+01  1.20100000E+01  1.20100000E+01  1.20100000E+01  1.60000000E+01
  1.60000000E+01  1.00800000E+00  1.20100000E+01  1.20100000E+01  1.20100000E+01
  1.20100000E+01  1.00800000E+00  1.00800000E+00  1.00800000E+00  1.00800000E+00
  1.00800000E+00  1.00800000E+00  1.00800000E+00  1.00800000E+00  1.00800000E+00
  1.00800000E+00  1.00800000E+00  1.00800000E+00  1.00800000E+00  1.00800000E+00
  1.00800000E+00  1.00800000E+00  1.00800000E+00
%FLAG ATOM_TYPE_INDEX                                                           
%FORMAT(10I8)                                                                   
       1       1       1       1       1       1       2       2       1       3
       4       5       2       2       2       2       6       6       6       6
       7       7       7       7       7       7       7       7       7       7
       7       7       7
%FLAG NUMBER_EXCLUDED_ATOMS                                                     
%FORMAT(10I8)                                                                   
      18      12      11      13       9       8      11       7       7       3
       2       1      14      11      10       9       1       1       1       1
       3       2       1       1       2       1       6       2       1       1
       2       1       1
%FLAG NONBONDED_PARM_INDEX                                                      
%FORMAT(10I8)                                                                   
       1       2       4       7      11      16      22       2       3       5
       8      12      17      23       4       5       6       9      13      18
      24       7       8       9      10      14      19      25      11      12
      13      14      15      20      26      16      17      18      19      20
      21      27      22      23      24      25      26      27      28
%FLAG RESIDUE_LABEL                                                             
%FORMAT(20a4)                                                                   
UNL 
%FLAG RESIDUE_POINTER                                                           
%FORMAT(10I8)                                                                   
       1
%FLAG BOND_FORCE_CONSTANT                                                       
%FORMAT(5E16.8)                                                                 
  3.54250000E+02  2.43910000E+02  3.60690000E+02  2.28890000E+02  2.34850000E+02
  3.45250000E+02  3.59270000E+02  5.90600000E+02  5.35510000E+02
%FLAG BOND_EQUIL_VALUE                                                          
%FORMAT(5E16.8)                                                                 
  1.39860000E+00  1.51470000E+00  1.08600000E+00  1.53540000E+00  1.52700000E+00
  1.09620000E+00  1.35560000E+00  1.21900000E+00  9.72500000E-01
%FLAG ANGLE_FORCE_CONSTANT                                                      
%FORMAT(5E16.8)                                                                 
  6.36700000E+01  4.49000000E+01  6.03300000E+01  6.08400000E+01  4.36100000E+01
  6.07400000E+01  4.32700000E+01  7.74200000E+01  7.64500000E+01  6.03600000E+01
  4.36300000E+01  6.84600000E+01  1.02030000E+02  5.98700000E+01  3.58000000E+01
%FLAG ANGLE_EQUIL_VALUE                                                         
%FORMAT(5E16.8)                                                                 
  2.09474507E+00  2.09230160E+00  1.96209999E+00  1.94010883E+00  1.93085858E+00
  2.10888224E+00  1.91427794E+00  1.96768504E+00  2.14501057E+00  1.94482122E+00
  1.90153704E+00  1.85947458E+00  2.13087340E+00  1.96576518E+00  1.88024401E+00
%FLAG DIHEDRAL_FORCE_CONSTANT                                                   
%FORMAT(5E16.8)                                                                 
  3.62500000E+00  1.55555556E-01  0.00000000E+00  2.40000000E-01  0.00000000E+00
  0.00000000E+00  1.80000000E+00  6.80000000E-01  2.00000000E-01  4.40000000E-01
  4.03000000E+00  3.66000000E+00  1.90000000E+00  2.30000000E+00  1.30000000E-01
  1.20000000E-01  1.10000000E+00
%FLAG DIHEDRAL_PERIODICITY                                                      
%FORMAT(5E16.8)                                                                 
  2.00000000E+00  3.00000000E+00  2.00000000E+00  2.00000000E+00  2.00000000E+00
  1.00000000E+00  2.00000000E+00  1.00000000E+00  2.00000000E+00  3.00000000E+00
  1.00000000E+00  2.00000000E+00  1.00000000E+00  2.00000000E+00  3.00000000E+00
  3.00000000E+00  2.00000000E+00
%FLAG DIHEDRAL_PHASE                                                            
%FORMAT(5E16.8)                                                                 
  3.14159400E+00  0.00000000E+00  3.14159400E+00  3.14159400E+00  0.00000000E+00
  0.00000000E+00  3.14159400E+00  0.00000000E+00  3.14159400E+00  3.14159400E+00
  0.00000000E+00  3.14159400E+00  0.00000000E+00  3.14159400E+00  0.00000000E+00
  0.00000000E+00  3.14159400E+00
%FLAG SCEE_SCALE_FACTOR                                                         
%FORMAT(5E16.8)                                                                 
  1.20000000E+00  1.20000000E+00  1.20000000E+00  1.20000000E+00  1.20000000E+00
  1.20000000E+00  1.20000000E+00  1.20000000E+00  1.20000000E+00  1.20000000E+00
  1.20000000E+00  1.20000000E+00  1.20000000E+00  1.20000000E+00  1.20000000E+00
  1.20000000E+00  0.00000000E+00
%FLAG SCNB_SCALE_FACTOR                                                         
%FORMAT(5E16.8)                                                                 
  2.00000000E+00  2.00000000E+00  2.00000000E+00  2.00000000E+00  2.00000000E+00
  2.00000000E+00  2.00000000E+00  2.00000000E+00  2.00000000E+00  2.00000000E+00
  2.00000000E+00  2.00000000E+00  2.00000000E+00  2.00000000E+00  2.00000000E+00
  2.00000000E+00  0.00000000E+00
%FLAG SOLTY                                                                     
%FORMAT(5E16.8)                                                                 
  0.00000000E+00  0.00000000E+00  0.00000000E+00  0.00000000E+00  0.00000000E+00
  0.00000000E+00  0.00000000E+00  0.00000000E+00
%FLAG LENNARD_JONES_ACOEF                                                       
%FORMAT(5E16.8)                                                                 
  6.96551276E+05  8.43969952E+05  1.02073671E+06  5.17507491E+05  6.30925504E+05
  3.76435470E+05  5.92438683E+05  7.18991463E+05  4.37717034E+05  5.03152404E+05
  2.25372434E+02  3.03553352E+02  1.15813907E+02  1.74176419E+02  1.10360882E-05
  7.52549148E+04  9.27554496E+04  5.27277400E+04  6.30298721E+04  8.53132435E+00
  6.90855956E+03  8.12662403E+04  1.00235148E+05  5.68021765E+04  6.80216136E+04
  8.80612241E+00  7.41026906E+03  7.94617769E+03
%FLAG LENNARD_JONES_BCOEF                                                       
%FORMAT(5E16.8)                                                                 
  5.24668528E+02  5.90251928E+02  6.63431737E+02  4.98871431E+02  5.62969425E+02
  4.69350655E+02  4.76608379E+02  5.36620538E+02  4.51916854E+02  4.32634597E+02
  4.40751799E+00  5.22789272E+00  3.48534600E+00  3.81654050E+00  4.55498033E-04
  1.09570372E+02  1.24325688E+02  1.01173582E+02  9.87712192E+01  5.44840215E-01
  2.10929191E+01  1.21392023E+02  1.37787728E+02  1.11953944E+02  1.09393126E+02
  5.90150328E-01  2.32899892E+01  2.57122925E+01
%FLAG BONDS_INC_HYDROGEN                                                        
%FORMAT(10I8)                                                                   
       3      48       3       6      51       3      12      54       3      15
      57       3      18      60       6      21      63       6      21      66
       6      21      69       6      30      33       9      36      72       6
      36      75       6      39      78       6      42      81       6      42
      84       6      42      87       6      45      90       6      45      93
       6      45      96       6
%FLAG BONDS_WITHOUT_HYDROGEN                                                    
%FORMAT(10I8)                                                                   
       0       3       1       0      15       1       0      18       2       3
       6       1       6       9       1       9      36       2       9      12
       1      12      15       1      18      21       4      18      24       5
      24      30       7      24      27       8      36      39       4      39
      45       4      39      42       4
%FLAG ANGLES_INC_HYDROGEN                                                       
%FORMAT(10I8)                                                                   
       0       3      48       2       0      15      57       2       0      18
      60       5       3       6      51       2       6       3      48       2
       9       6      51       2       9      36      72       5       9      36
      75       5       9      12      54       2      12      15      57       2
      15      12      54       2      18      21      63       7      18      21
      66       7      18      21      69       7      21      18      60       7
      24      18      60      11      24      30      33      12      36      39
      78       7      39      36      72       7      39      36      75       7
      39      45      90       7      39      45      93       7      39      45
      96       7      39      42      81       7      39      42      84       7
      39      42      87       7      42      39      78       7      45      39
      78       7      63      21      66      15      63      21      69      15
      66      21      69      15      72      36      75      15      81      42
      84      15      81      42      87      15      84      42      87      15
      90      45      93      15      90      45      96      15      93      45
      96      15
%FLAG ANGLES_WITHOUT_HYDROGEN                                                   
%FORMAT(10I8)                                                                   
       0       3       6       1       0      15      12       1       0      18
      21       3       0      18      24       4       3       0      15       1
       3       0      18       6       3       6       9       1       6       9
      36       6       6       9      12       1       9      36      39       3
       9      12      15       1      12       9      36       6      15       0
      18       6      18      24      30       8      18      24      27       9
      21      18      24      10      27      24      30      13      36      39
      45      14      36      39      42      14      42      39      45      14
%FLAG DIHEDRALS_INC_HYDROGEN                                                    
%FORMAT(10I8)                                                                   
       0       3       6      51       1       0      15      12      54       1
       0      18      21      63       2       0      18      21      66       2
       0      18      21      69       2       3       0      15      57       1
       3       0      18      60       6       6       9      36      72       6
       6       9      36      75       6       6       9      12      54       1
       9       6       3      48       1       9      36      39      78       2
       9      12      15      57       1      12       9       6      51       1
      12       9      36      72       6      12       9      36      75       6
      15       0       3      48       1      15       0      18      60       6
      18       0       3      48       1      18       0      15      57       1
      18      24      30      33       7      24      18      21      63       2
      24      18      21      66       2      24      18      21      69       2
      27      24      18      60      11      27      24     -18      60      12
      27      24      30      33      13      27      24     -30      33      14
      30      24      18      60       3      36       9       6      51       1
      36       9      12      54       1      36      39      45      90      15
      36      39      45      93      15      36      39      45      96      15
      36      39      42      81      15      36      39      42      84      15
      36      39      42      87      15      42      39      36      72      15
      42      39      36      75      15      42      39      45      90      15
      42      39      45      93      15      42      39      45      96      15
      45      39      36      72      15      45      39      36      75      15
      45      39      42      81      15      45      39      42      84      15
      45      39      42      87      15      48       3       6      51       1
      54      12      15      57       1      60      18      21      63      16
      60      18      21      66      16      60      18      21      69      16
      72      36      39      78      16      75      36      39      78      16
      78      39      45      90      16      78      39      45      93      16
      78      39      45      96      16      78      39      42      81      16
      78      39      42      84      16      78      39      42      87      16
       0       6      -3     -48      17       3       9      -6     -51      17
       9      15     -12     -54      17       0      12     -15     -57      17
%FLAG DIHEDRALS_WITHOUT_HYDROGEN                                                
%FORMAT(10I8)                                                                   
       0       3       6       9       1       0      15     -12       9       1
       0      18      24      30       3       0      18      24      27       3
       3       0      15      12       1       3       0      18      21       4
       3       0      18      24       5       3       6       9      36       1
       3       6      -9      12       1      15       0       3       6       1
      18       0       3       6       1       6       9      36      39       4
       6       9     -12      15       1       9      36      39      45       2
       9      36      39      42       2      12       9      36      39       4
      18       0      15      12       1      15       0      18      21       4
      15       0      18      24       5      15      12       9      36       1
      21      18      24      30       3      21      18      24      27       8
      21      18     -24      27       9      21      18     -24      27      10
      18       0     -15      -3      17      36       6      -9     -12      17
      18      27     -24     -30      17
%FLAG EXCLUDED_ATOMS_LIST                                                       
%FORMAT(10I8)                                                                   
       2       3       4       5       6       7       8       9      10      11
      17      18      19      20      21      22      23      24       3       4
       5       6       7       8       9      13      17      18      20      21
       4       5       6       7      13      14      17      18      19      25
      26       5       6      13      14      15      16      17      18      19
      20      25      26      27       6       7      13      14      18      19
      20      25      26       7       8       9      13      17      19      20
      21       8       9      10      11      12      17      20      21      22
      23      24       9      10      11      21      22      23      24      10
      11      12      21      22      23      24      11      12      21      12
      21       0      14      15      16      18      19      25      26      27
      28      29      30      31      32      33      15      16      25      26
      27      28      29      30      31      32      33      16      25      26
      27      28      29      30      31      32      33      25      26      27
      28      29      30      31      32      33      18       0      20       0
      22      23      24      23      24      24       0      26      27      27
      28      29      30      31      32      33      29      30      30       0
      32      33      33       0
%FLAG HBOND_ACOEF                                                               
%FORMAT(5E16.8)                                                                 

%FLAG HBOND_BCOEF                                                               
%FORMAT(5E16.8)                                                                 

%FLAG HBCUT                                                                     
%FORMAT(5E16.8)                                                                 

%FLAG AMBER_ATOM_TYPE                                                           
%FORMAT(20a4)                                                                   
ca  ca  ca  ca  ca  ca  c3  c3  c   o   oh  ho  c3  c3  c3  c3  ha  ha  ha  ha  
hc  hc  hc  hc  hc  hc  hc  hc  hc  hc  hc  hc  hc  
%FLAG TREE_CHAIN_CLASSIFICATION                                                 
%FORMAT(20a4)                                                                   
BLA BLA BLA BLA BLA BLA BLA BLA BLA BLA BLA BLA BLA BLA BLA BLA BLA BLA BLA BLA 
BLA BLA BLA BLA BLA BLA BLA BLA BLA BLA BLA BLA BLA 
%FLAG JOIN_ARRAY                                                                
%FORMAT(10I8)                                                                   
       0       0       0       0       0       0       0       0       0       0
       0       0       0       0       0       0       0       0       0       0
       0       0       0       0       0       0       0       0       0       0
       0       0       0
%FLAG IROTAT                                                                    
%FORMAT(10I8)                                                                   
       0       0       0       0       0       0       0       0       0       0
       0       0       0       0       0       0       0       0       0       0
       0       0       0       0       0       0       0       0       0       0
       0       0       0
%FLAG RADIUS_SET                                                                
%FORMAT(1a80)                                                                   
modified Bondi radii (mbondi)                                                   
%FLAG RADII                                                                     
%FORMAT(5E16.8)                                                                 
  1.70000000E+00  1.70000000E+00  1.70000000E+00  1.70000000E+00  1.70000000E+00
  1.70000000E+00  1.70000000E+00  1.70000000E+00  1.70000000E+00  1.50000000E+00
  1.50000000E+00  8.00000000E-01  1.70000000E+00  1.70000000E+00  1.70000000E+00
  1.70000000E+00  1.30000000E+00  1.30000000E+00  1.30000000E+00  1.30000000E+00
  1.30000000E+00  1.30000000E+00  1.30000000E+00  1.30000000E+00  1.30000000E+00
  1.30000000E+00  1.30000000E+00  1.30000000E+00  1.30000000E+00  1.30000000E+00
  1.30000000E+00  1.30000000E+00  1.30000000E+00
%FLAG SCREEN                                                                    
%FORMAT(5E16.8)                                                                 
  7.20000000E-01  7.20000000E-01  7.20000000E-01  7.20000000E-01  7.20000000E-01
  7.20000000E-01  7.20000000E-01  7.20000000E-01  7.20000000E-01  8.50000000E-01
  8.50000000E-01  8.50000000E-01  7.20000000E-01  7.20000000E-01  7.20000000E-01
  7.20000000E-01  8.50000000E-01  8.50000000E-01  8.50000000E-01  8.50000000E-01
  8.50000000E-01  8.50000000E-01  8.50000000E-01  8.50000000E-01  8.50000000E-01
  8.50000000E-01  8.50000000E-01  8.50000000E-01  8.50000000E-01  8.50000000E-01
  8.50000000E-01  8.50000000E-01  8.50000000E-01
%FLAG IPOL                                                                      
%FORMAT(1I8)                                                                    
       0
