IBP-Site1_1h.pdb
    33
   4.1810000 -11.4640000   9.4950000   4.9420000 -12.3160000   8.7160000
   5.1230000 -12.0470000   7.3740000   4.5420000 -10.9280000   6.8090000
   3.7860000 -10.0730000   7.5880000   3.6010000 -10.3450000   8.9300000
   3.9820000 -11.7570000  10.9600000   2.4910000 -11.7020000  11.2940000
   4.7200000 -10.7330000  11.7820000   4.1360000 -10.1130000  12.6390000
   6.0250000 -10.5090000  11.5620000   6.4130000  -9.6520000  11.7880000
   4.7400000 -10.6350000   5.3430000   4.0670000 -11.7260000   4.5100000
   2.6720000 -11.2600000   4.0890000   4.9070000 -12.0080000   3.2640000
   5.3750000 -13.1530000   9.1380000   5.6920000 -12.6820000   6.7930000
   3.3600000  -9.2320000   7.1680000   3.0290000  -9.7120000   9.5110000
   4.3610000 -12.7330000  11.1830000   2.1110000 -10.7270000  11.0720000
   2.3510000 -11.9110000  12.3340000   1.9680000 -12.4300000  10.7100000
   5.7870000 -10.6120000   5.1220000   4.3050000  -9.6860000   5.1070000
   3.9840000 -12.6190000   5.0940000   2.7550000 -10.3670000   3.5050000
   2.0840000 -11.0630000   4.9610000   2.2010000 -12.0240000   3.5070000
   4.9900000 -11.1150000   2.6800000   4.4360000 -12.7720000   2.6820000
   5.8830000 -12.3340000   3.5580000
