; h2ea1_GMX_OPLS.itp created by acpype (v: 2023.10.27) on Thu Sep  4 07:59:45 2025

; For OPLS atomtypes manual fine tuning
; AC_at:OPLS_at:OPLScode: Possible_Alternatives (see ffoplsaa.atp and ffoplsaanb.itp)
; os:x:opls_x: []
; o:O:opls_236: ['272']
; n:N:opls_237: ['238', '239']
; c3:CT:opls_135: ['136', '137', '149', '157', '158', '206', '209', '210', '223B', '224B', '245', '246', '274', '283', '284', '285', '292', '292B', '293B', '296', '307', '308', '505']
; c:C:opls_235: ['271']
; h1:HC:opls_140: []
; hc:HC:opls_140: []

[ moleculetype ]
;name            nrexcl
 h2ea1            3

[ atoms ]
;   nr  type  resi  res  atom  cgnr     charge      mass       ; qtot   bond_type
     1 opls_x     1   UNL     O    1    -0.400900      0.00000 ; qtot -0.401  x   
     2 opls_x     1   UNL    O1    2    -0.437900      0.00000 ; qtot -0.839  x   
     3 opls_x     1   UNL    O2    3    -0.426900      0.00000 ; qtot -1.266  x   
     4 opls_236     1   UNL    O3    4    -0.575100     15.99940 ; qtot -1.841  O   
     5 opls_236     1   UNL    O4    5    -0.551000     15.99940 ; qtot -2.392  O   
     6 opls_236     1   UNL    O5    6    -0.581100     15.99940 ; qtot -2.973  O   
     7 opls_236     1   UNL    O6    7    -0.508000     15.99940 ; qtot -3.481  O   
     8 opls_236     1   UNL    O7    8    -0.570100     15.99940 ; qtot -4.051  O   
     9 opls_236     1   UNL    O8    9    -0.541000     15.99940 ; qtot -4.592  O   
    10 opls_237     1   UNL     N   10    -0.461800     14.00670 ; qtot -5.054  N   
    11 opls_237     1   UNL    N1   11    -0.477800     14.00670 ; qtot -5.532  N   
    12 opls_237     1   UNL    N2   12    -0.462800     14.00670 ; qtot -5.994  N   
    13 opls_135     1   UNL     C   13     0.061700     12.01100 ; qtot -5.933  CT  
    14 opls_135     1   UNL    C1   14     0.074700     12.01100 ; qtot -5.858  CT  
    15 opls_135     1   UNL    C2   15     0.085100     12.01100 ; qtot -5.773  CT  
    16 opls_135     1   UNL    C3   16     0.062700     12.01100 ; qtot -5.710  CT  
    17 opls_135     1   UNL    C4   17     0.088100     12.01100 ; qtot -5.622  CT  
    18 opls_135     1   UNL    C5   18     0.103100     12.01100 ; qtot -5.519  CT  
    19 opls_235     1   UNL    C6   19     0.648100     12.01100 ; qtot -4.871  C   
    20 opls_235     1   UNL    C7   20     0.627100     12.01100 ; qtot -4.244  C   
    21 opls_235     1   UNL    C8   21     0.676111     12.01100 ; qtot -3.568  C   
    22 opls_235     1   UNL    C9   22     0.610100     12.01100 ; qtot -2.958  C   
    23 opls_235     1   UNL   C10   23     0.641100     12.01100 ; qtot -2.316  C   
    24 opls_235     1   UNL   C11   24     0.609100     12.01100 ; qtot -1.707  C   
    25 opls_135     1   UNL   C12   25     0.065300     12.01100 ; qtot -1.642  CT  
    26 opls_135     1   UNL   C13   26     0.070300     12.01100 ; qtot -1.572  CT  
    27 opls_135     1   UNL   C14   27     0.060300     12.01100 ; qtot -1.511  CT  
    28 opls_135     1   UNL   C15   28    -0.058700     12.01100 ; qtot -1.570  CT  
    29 opls_135     1   UNL   C16   29    -0.095100     12.01100 ; qtot -1.665  CT  
    30 opls_135     1   UNL   C17   30    -0.095100     12.01100 ; qtot -1.760  CT  
    31 opls_135     1   UNL   C18   31    -0.064700     12.01100 ; qtot -1.825  CT  
    32 opls_135     1   UNL   C19   32    -0.103100     12.01100 ; qtot -1.928  CT  
    33 opls_135     1   UNL   C20   33    -0.082400     12.01100 ; qtot -2.011  CT  
    34 opls_135     1   UNL   C21   34    -0.096100     12.01100 ; qtot -2.107  CT  
    35 opls_135     1   UNL   C22   35    -0.064700     12.01100 ; qtot -2.171  CT  
    36 opls_135     1   UNL   C23   36    -0.103100     12.01100 ; qtot -2.274  CT  
    37 opls_135     1   UNL   C24   37    -0.082400     12.01100 ; qtot -2.357  CT  
    38 opls_135     1   UNL   C25   38    -0.096100     12.01100 ; qtot -2.453  CT  
    39 opls_135     1   UNL   C26   39    -0.063700     12.01100 ; qtot -2.517  CT  
    40 opls_135     1   UNL   C27   40    -0.099100     12.01100 ; qtot -2.616  CT  
    41 opls_135     1   UNL   C28   41    -0.099100     12.01100 ; qtot -2.715  CT  
    42 opls_135     1   UNL   C29   42    -0.084700     12.01100 ; qtot -2.800  CT  
    43 opls_135     1   UNL   C30   43    -0.094100     12.01100 ; qtot -2.894  CT  
    44 opls_135     1   UNL   C31   44    -0.094100     12.01100 ; qtot -2.988  CT  
    45 opls_135     1   UNL   C32   45    -0.059700     12.01100 ; qtot -3.047  CT  
    46 opls_135     1   UNL   C33   46    -0.106600     12.01100 ; qtot -3.154  CT  
    47 opls_135     1   UNL   C34   47    -0.106600     12.01100 ; qtot -3.261  CT  
    48 opls_140     1   UNL     H   48     0.119200      1.00800 ; qtot -3.141  HC  
    49 opls_140     1   UNL    H1   49     0.119200      1.00800 ; qtot -3.022  HC  
    50 opls_140     1   UNL    H2   50     0.088700      1.00800 ; qtot -2.934  HC  
    51 opls_140     1   UNL    H3   51     0.127700      1.00800 ; qtot -2.806  HC  
    52 opls_140     1   UNL    H4   52     0.087700      1.00800 ; qtot -2.718  HC  
    53 opls_140     1   UNL    H5   53     0.086700      1.00800 ; qtot -2.631  HC  
    54 opls_140     1   UNL    H6   54     0.048033      1.00800 ; qtot -2.583  HC  
    55 opls_140     1   UNL    H7   55     0.048033      1.00800 ; qtot -2.535  HC  
    56 opls_140     1   UNL    H8   56     0.048033      1.00800 ; qtot -2.487  HC  
    57 opls_140     1   UNL    H9   57     0.049367      1.00800 ; qtot -2.438  HC  
    58 opls_140     1   UNL   H10   58     0.049367      1.00800 ; qtot -2.389  HC  
    59 opls_140     1   UNL   H11   59     0.049367      1.00800 ; qtot -2.339  HC  
    60 opls_140     1   UNL   H12   60     0.055033      1.00800 ; qtot -2.284  HC  
    61 opls_140     1   UNL   H13   61     0.055033      1.00800 ; qtot -2.229  HC  
    62 opls_140     1   UNL   H14   62     0.055033      1.00800 ; qtot -2.174  HC  
    63 opls_140     1   UNL   H15   63     0.056700      1.00800 ; qtot -2.117  HC  
    64 opls_140     1   UNL   H16   64     0.045033      1.00800 ; qtot -2.072  HC  
    65 opls_140     1   UNL   H17   65     0.045033      1.00800 ; qtot -2.027  HC  
    66 opls_140     1   UNL   H18   66     0.045033      1.00800 ; qtot -1.982  HC  
    67 opls_140     1   UNL   H19   67     0.045033      1.00800 ; qtot -1.937  HC  
    68 opls_140     1   UNL   H20   68     0.045033      1.00800 ; qtot -1.892  HC  
    69 opls_140     1   UNL   H21   69     0.045033      1.00800 ; qtot -1.847  HC  
    70 opls_140     1   UNL   H22   70     0.063200      1.00800 ; qtot -1.784  HC  
    71 opls_140     1   UNL   H23   71     0.045200      1.00800 ; qtot -1.739  HC  
    72 opls_140     1   UNL   H24   72     0.045200      1.00800 ; qtot -1.694  HC  
    73 opls_140     1   UNL   H25   73     0.045200      1.00800 ; qtot -1.648  HC  
    74 opls_140     1   UNL   H26   74     0.052700      1.00800 ; qtot -1.596  HC  
    75 opls_140     1   UNL   H27   75     0.052700      1.00800 ; qtot -1.543  HC  
    76 opls_140     1   UNL   H28   76     0.035533      1.00800 ; qtot -1.508  HC  
    77 opls_140     1   UNL   H29   77     0.035533      1.00800 ; qtot -1.472  HC  
    78 opls_140     1   UNL   H30   78     0.035533      1.00800 ; qtot -1.436  HC  
    79 opls_140     1   UNL   H31   79     0.063200      1.00800 ; qtot -1.373  HC  
    80 opls_140     1   UNL   H32   80     0.045200      1.00800 ; qtot -1.328  HC  
    81 opls_140     1   UNL   H33   81     0.045200      1.00800 ; qtot -1.283  HC  
    82 opls_140     1   UNL   H34   82     0.045200      1.00800 ; qtot -1.238  HC  
    83 opls_140     1   UNL   H35   83     0.052700      1.00800 ; qtot -1.185  HC  
    84 opls_140     1   UNL   H36   84     0.052700      1.00800 ; qtot -1.132  HC  
    85 opls_140     1   UNL   H37   85     0.035533      1.00800 ; qtot -1.097  HC  
    86 opls_140     1   UNL   H38   86     0.035533      1.00800 ; qtot -1.061  HC  
    87 opls_140     1   UNL   H39   87     0.035533      1.00800 ; qtot -1.026  HC  
    88 opls_140     1   UNL   H40   88     0.057700      1.00800 ; qtot -0.968  HC  
    89 opls_140     1   UNL   H41   89     0.045533      1.00800 ; qtot -0.922  HC  
    90 opls_140     1   UNL   H42   90     0.045533      1.00800 ; qtot -0.877  HC  
    91 opls_140     1   UNL   H43   91     0.045533      1.00800 ; qtot -0.831  HC  
    92 opls_140     1   UNL   H44   92     0.045533      1.00800 ; qtot -0.786  HC  
    93 opls_140     1   UNL   H45   93     0.045533      1.00800 ; qtot -0.740  HC  
    94 opls_140     1   UNL   H46   94     0.045533      1.00800 ; qtot -0.695  HC  
    95 opls_140     1   UNL   H47   95     0.098700      1.00800 ; qtot -0.596  HC  
    96 opls_140     1   UNL   H48   96     0.041033      1.00800 ; qtot -0.555  HC  
    97 opls_140     1   UNL   H49   97     0.041033      1.00800 ; qtot -0.514  HC  
    98 opls_140     1   UNL   H50   98     0.041033      1.00800 ; qtot -0.473  HC  
    99 opls_140     1   UNL   H51   99     0.041033      1.00800 ; qtot -0.432  HC  
   100 opls_140     1   UNL   H52  100     0.041033      1.00800 ; qtot -0.391  HC  
   101 opls_140     1   UNL   H53  101     0.041033      1.00800 ; qtot -0.350  HC  
   102 opls_140     1   UNL   H54  102     0.064700      1.00800 ; qtot -0.285  HC  
   103 opls_140     1   UNL   H55  103     0.047533      1.00800 ; qtot -0.238  HC  
   104 opls_140     1   UNL   H56  104     0.047533      1.00800 ; qtot -0.190  HC  
   105 opls_140     1   UNL   H57  105     0.047533      1.00800 ; qtot -0.143  HC  
   106 opls_140     1   UNL   H58  106     0.047533      1.00800 ; qtot -0.095  HC  
   107 opls_140     1   UNL   H59  107     0.047533      1.00800 ; qtot -0.048  HC  
   108 opls_140     1   UNL   H60  108     0.047533      1.00800 ; qtot  0.000  HC  

[ bonds ]
;   ai     aj funct   r             k
     1     15   1 ;    1.4273e-01    2.3620e+05 ;      O - C2          x - CT    
     1     20   1 ;    1.3621e-01    2.9398e+05 ;      O - C7          x - C     
     2     18   1 ;    1.4273e-01    2.3620e+05 ;     O1 - C5          x - CT    
     2     22   1 ;    1.3621e-01    2.9398e+05 ;     O1 - C9          x - C     
     3     17   1 ;    1.4273e-01    2.3620e+05 ;     O2 - C4          x - CT    
     3     24   1 ;    1.3621e-01    2.9398e+05 ;     O2 - C11         x - C     
     4     19   1 ;    1.2190e-01    4.9421e+05 ;     O3 - C6          O - C     
     5     20   1 ;    1.2190e-01    4.9421e+05 ;     O4 - C7          O - C     
     6     21   1 ;    1.2190e-01    4.9421e+05 ;     O5 - C8          O - C     
     7     22   1 ;    1.2190e-01    4.9421e+05 ;     O6 - C9          O - C     
     8     23   1 ;    1.2190e-01    4.9421e+05 ;     O7 - C10         O - C     
     9     24   1 ;    1.2190e-01    4.9421e+05 ;     O8 - C11         O - C     
    10     13   1 ;    1.4643e-01    2.1293e+05 ;      N - C           N - CT    
    10     19   1 ;    1.3967e-01    2.6565e+05 ;      N - C6          N - C     
    10     25   1 ;    1.4643e-01    2.1293e+05 ;      N - C12         N - CT    
    11     14   1 ;    1.4643e-01    2.1293e+05 ;     N1 - C1          N - CT    
    11     21   1 ;    1.3967e-01    2.6565e+05 ;     N1 - C8          N - C     
    11     26   1 ;    1.4643e-01    2.1293e+05 ;     N1 - C13         N - CT    
    12     16   1 ;    1.4643e-01    2.1293e+05 ;     N2 - C3          N - CT    
    12     23   1 ;    1.3967e-01    2.6565e+05 ;     N2 - C10         N - C     
    12     27   1 ;    1.4643e-01    2.1293e+05 ;     N2 - C14         N - CT    
    13     22   1 ;    1.5270e-01    1.9652e+05 ;      C - C9         CT - C     
    13     35   1 ;    1.5354e-01    1.9154e+05 ;      C - C22        CT - CT    
    13     48   1 ;    1.0969e-01    2.8804e+05 ;      C - H          CT - HC    
    14     20   1 ;    1.5270e-01    1.9652e+05 ;     C1 - C7         CT - C     
    14     31   1 ;    1.5354e-01    1.9154e+05 ;     C1 - C18        CT - CT    
    14     49   1 ;    1.0969e-01    2.8804e+05 ;     C1 - H1         CT - HC    
    15     19   1 ;    1.5270e-01    1.9652e+05 ;     C2 - C6         CT - C     
    15     28   1 ;    1.5354e-01    1.9154e+05 ;     C2 - C15        CT - CT    
    15     50   1 ;    1.0969e-01    2.8804e+05 ;     C2 - H2         CT - HC    
    16     24   1 ;    1.5270e-01    1.9652e+05 ;     C3 - C11        CT - C     
    16     45   1 ;    1.5354e-01    1.9154e+05 ;     C3 - C32        CT - CT    
    16     51   1 ;    1.0969e-01    2.8804e+05 ;     C3 - H3         CT - HC    
    17     21   1 ;    1.5270e-01    1.9652e+05 ;     C4 - C8         CT - C     
    17     39   1 ;    1.5354e-01    1.9154e+05 ;     C4 - C26        CT - CT    
    17     52   1 ;    1.0969e-01    2.8804e+05 ;     C4 - H4         CT - HC    
    18     23   1 ;    1.5270e-01    1.9652e+05 ;     C5 - C10        CT - C     
    18     42   1 ;    1.5354e-01    1.9154e+05 ;     C5 - C29        CT - CT    
    18     53   1 ;    1.0969e-01    2.8804e+05 ;     C5 - H5         CT - HC    
    25     54   1 ;    1.0969e-01    2.8804e+05 ;    C12 - H6         CT - HC    
    25     55   1 ;    1.0969e-01    2.8804e+05 ;    C12 - H7         CT - HC    
    25     56   1 ;    1.0969e-01    2.8804e+05 ;    C12 - H8         CT - HC    
    26     57   1 ;    1.0969e-01    2.8804e+05 ;    C13 - H9         CT - HC    
    26     58   1 ;    1.0969e-01    2.8804e+05 ;    C13 - H10        CT - HC    
    26     59   1 ;    1.0969e-01    2.8804e+05 ;    C13 - H11        CT - HC    
    27     60   1 ;    1.0969e-01    2.8804e+05 ;    C14 - H12        CT - HC    
    27     61   1 ;    1.0969e-01    2.8804e+05 ;    C14 - H13        CT - HC    
    27     62   1 ;    1.0969e-01    2.8804e+05 ;    C14 - H14        CT - HC    
    28     29   1 ;    1.5354e-01    1.9154e+05 ;    C15 - C16        CT - CT    
    28     30   1 ;    1.5354e-01    1.9154e+05 ;    C15 - C17        CT - CT    
    28     63   1 ;    1.0962e-01    2.8891e+05 ;    C15 - H15        CT - HC    
    29     64   1 ;    1.0962e-01    2.8891e+05 ;    C16 - H16        CT - HC    
    29     65   1 ;    1.0962e-01    2.8891e+05 ;    C16 - H17        CT - HC    
    29     66   1 ;    1.0962e-01    2.8891e+05 ;    C16 - H18        CT - HC    
    30     67   1 ;    1.0962e-01    2.8891e+05 ;    C17 - H19        CT - HC    
    30     68   1 ;    1.0962e-01    2.8891e+05 ;    C17 - H20        CT - HC    
    30     69   1 ;    1.0962e-01    2.8891e+05 ;    C17 - H21        CT - HC    
    31     32   1 ;    1.5354e-01    1.9154e+05 ;    C18 - C19        CT - CT    
    31     33   1 ;    1.5354e-01    1.9154e+05 ;    C18 - C20        CT - CT    
    31     70   1 ;    1.0962e-01    2.8891e+05 ;    C18 - H22        CT - HC    
    32     71   1 ;    1.0962e-01    2.8891e+05 ;    C19 - H23        CT - HC    
    32     72   1 ;    1.0962e-01    2.8891e+05 ;    C19 - H24        CT - HC    
    32     73   1 ;    1.0962e-01    2.8891e+05 ;    C19 - H25        CT - HC    
    33     34   1 ;    1.5354e-01    1.9154e+05 ;    C20 - C21        CT - CT    
    33     74   1 ;    1.0962e-01    2.8891e+05 ;    C20 - H26        CT - HC    
    33     75   1 ;    1.0962e-01    2.8891e+05 ;    C20 - H27        CT - HC    
    34     76   1 ;    1.0962e-01    2.8891e+05 ;    C21 - H28        CT - HC    
    34     77   1 ;    1.0962e-01    2.8891e+05 ;    C21 - H29        CT - HC    
    34     78   1 ;    1.0962e-01    2.8891e+05 ;    C21 - H30        CT - HC    
    35     36   1 ;    1.5354e-01    1.9154e+05 ;    C22 - C23        CT - CT    
    35     37   1 ;    1.5354e-01    1.9154e+05 ;    C22 - C24        CT - CT    
    35     79   1 ;    1.0962e-01    2.8891e+05 ;    C22 - H31        CT - HC    
    36     80   1 ;    1.0962e-01    2.8891e+05 ;    C23 - H32        CT - HC    
    36     81   1 ;    1.0962e-01    2.8891e+05 ;    C23 - H33        CT - HC    
    36     82   1 ;    1.0962e-01    2.8891e+05 ;    C23 - H34        CT - HC    
    37     38   1 ;    1.5354e-01    1.9154e+05 ;    C24 - C25        CT - CT    
    37     83   1 ;    1.0962e-01    2.8891e+05 ;    C24 - H35        CT - HC    
    37     84   1 ;    1.0962e-01    2.8891e+05 ;    C24 - H36        CT - HC    
    38     85   1 ;    1.0962e-01    2.8891e+05 ;    C25 - H37        CT - HC    
    38     86   1 ;    1.0962e-01    2.8891e+05 ;    C25 - H38        CT - HC    
    38     87   1 ;    1.0962e-01    2.8891e+05 ;    C25 - H39        CT - HC    
    39     40   1 ;    1.5354e-01    1.9154e+05 ;    C26 - C27        CT - CT    
    39     41   1 ;    1.5354e-01    1.9154e+05 ;    C26 - C28        CT - CT    
    39     88   1 ;    1.0962e-01    2.8891e+05 ;    C26 - H40        CT - HC    
    40     89   1 ;    1.0962e-01    2.8891e+05 ;    C27 - H41        CT - HC    
    40     90   1 ;    1.0962e-01    2.8891e+05 ;    C27 - H42        CT - HC    
    40     91   1 ;    1.0962e-01    2.8891e+05 ;    C27 - H43        CT - HC    
    41     92   1 ;    1.0962e-01    2.8891e+05 ;    C28 - H44        CT - HC    
    41     93   1 ;    1.0962e-01    2.8891e+05 ;    C28 - H45        CT - HC    
    41     94   1 ;    1.0962e-01    2.8891e+05 ;    C28 - H46        CT - HC    
    42     43   1 ;    1.5354e-01    1.9154e+05 ;    C29 - C30        CT - CT    
    42     44   1 ;    1.5354e-01    1.9154e+05 ;    C29 - C31        CT - CT    
    42     95   1 ;    1.0962e-01    2.8891e+05 ;    C29 - H47        CT - HC    
    43     96   1 ;    1.0962e-01    2.8891e+05 ;    C30 - H48        CT - HC    
    43     97   1 ;    1.0962e-01    2.8891e+05 ;    C30 - H49        CT - HC    
    43     98   1 ;    1.0962e-01    2.8891e+05 ;    C30 - H50        CT - HC    
    44     99   1 ;    1.0962e-01    2.8891e+05 ;    C31 - H51        CT - HC    
    44    100   1 ;    1.0962e-01    2.8891e+05 ;    C31 - H52        CT - HC    
    44    101   1 ;    1.0962e-01    2.8891e+05 ;    C31 - H53        CT - HC    
    45     46   1 ;    1.5354e-01    1.9154e+05 ;    C32 - C33        CT - CT    
    45     47   1 ;    1.5354e-01    1.9154e+05 ;    C32 - C34        CT - CT    
    45    102   1 ;    1.0962e-01    2.8891e+05 ;    C32 - H54        CT - HC    
    46    103   1 ;    1.0962e-01    2.8891e+05 ;    C33 - H55        CT - HC    
    46    104   1 ;    1.0962e-01    2.8891e+05 ;    C33 - H56        CT - HC    
    46    105   1 ;    1.0962e-01    2.8891e+05 ;    C33 - H57        CT - HC    
    47    106   1 ;    1.0962e-01    2.8891e+05 ;    C34 - H58        CT - HC    
    47    107   1 ;    1.0962e-01    2.8891e+05 ;    C34 - H59        CT - HC    
    47    108   1 ;    1.0962e-01    2.8891e+05 ;    C34 - H60        CT - HC    

[ pairs ]
;   ai     aj    funct
     1      4      1 ;      O - O3    
     1     10      1 ;      O - N     
     1     11      1 ;      O - N1    
     1     29      1 ;      O - C16   
     1     30      1 ;      O - C17   
     1     31      1 ;      O - C18   
     1     49      1 ;      O - H1    
     1     63      1 ;      O - H15   
     2      8      1 ;     O1 - O7    
     2     10      1 ;     O1 - N     
     2     12      1 ;     O1 - N2    
     2     35      1 ;     O1 - C22   
     2     43      1 ;     O1 - C30   
     2     44      1 ;     O1 - C31   
     2     48      1 ;     O1 - H     
     2     95      1 ;     O1 - H47   
     3      6      1 ;     O2 - O5    
     3     11      1 ;     O2 - N1    
     3     12      1 ;     O2 - N2    
     3     40      1 ;     O2 - C27   
     3     41      1 ;     O2 - C28   
     3     45      1 ;     O2 - C32   
     3     51      1 ;     O2 - H3    
     3     88      1 ;     O2 - H40   
     4     13      1 ;     O3 - C     
     4     25      1 ;     O3 - C12   
     4     28      1 ;     O3 - C15   
     4     50      1 ;     O3 - H2    
     5     11      1 ;     O4 - N1    
     5     31      1 ;     O4 - C18   
     5     49      1 ;     O4 - H1    
     6     14      1 ;     O5 - C1    
     6     26      1 ;     O5 - C13   
     6     39      1 ;     O5 - C26   
     6     52      1 ;     O5 - H4    
     7     10      1 ;     O6 - N     
     7     18      1 ;     O6 - C5    
     7     35      1 ;     O6 - C22   
     7     48      1 ;     O6 - H     
     8     16      1 ;     O7 - C3    
     8     27      1 ;     O7 - C14   
     8     42      1 ;     O7 - C29   
     8     53      1 ;     O7 - H5    
     9     12      1 ;     O8 - N2    
     9     17      1 ;     O8 - C4    
     9     45      1 ;     O8 - C32   
     9     51      1 ;     O8 - H3    
    10     28      1 ;      N - C15   
    10     36      1 ;      N - C23   
    10     37      1 ;      N - C24   
    10     50      1 ;      N - H2    
    10     79      1 ;      N - H31   
    11     32      1 ;     N1 - C19   
    11     33      1 ;     N1 - C20   
    11     39      1 ;     N1 - C26   
    11     52      1 ;     N1 - H4    
    11     70      1 ;     N1 - H22   
    12     42      1 ;     N2 - C29   
    12     46      1 ;     N2 - C33   
    12     47      1 ;     N2 - C34   
    12     53      1 ;     N2 - H5    
    12    102      1 ;     N2 - H54   
    13     15      1 ;      C - C2    
    13     18      1 ;      C - C5    
    13     38      1 ;      C - C25   
    13     54      1 ;      C - H6    
    13     55      1 ;      C - H7    
    13     56      1 ;      C - H8    
    13     80      1 ;      C - H32   
    13     81      1 ;      C - H33   
    13     82      1 ;      C - H34   
    13     83      1 ;      C - H35   
    13     84      1 ;      C - H36   
    14     17      1 ;     C1 - C4    
    14     34      1 ;     C1 - C21   
    14     57      1 ;     C1 - H9    
    14     58      1 ;     C1 - H10   
    14     59      1 ;     C1 - H11   
    14     71      1 ;     C1 - H23   
    14     72      1 ;     C1 - H24   
    14     73      1 ;     C1 - H25   
    14     74      1 ;     C1 - H26   
    14     75      1 ;     C1 - H27   
    15      5      1 ;     C2 - O4    
    15     14      1 ;     C2 - C1    
    15     25      1 ;     C2 - C12   
    15     64      1 ;     C2 - H16   
    15     65      1 ;     C2 - H17   
    15     66      1 ;     C2 - H18   
    15     67      1 ;     C2 - H19   
    15     68      1 ;     C2 - H20   
    15     69      1 ;     C2 - H21   
    16     17      1 ;     C3 - C4    
    16     18      1 ;     C3 - C5    
    16     60      1 ;     C3 - H12   
    16     61      1 ;     C3 - H13   
    16     62      1 ;     C3 - H14   
    16    103      1 ;     C3 - H55   
    16    104      1 ;     C3 - H56   
    16    105      1 ;     C3 - H57   
    16    106      1 ;     C3 - H58   
    16    107      1 ;     C3 - H59   
    16    108      1 ;     C3 - H60   
    17     26      1 ;     C4 - C13   
    17     89      1 ;     C4 - H41   
    17     90      1 ;     C4 - H42   
    17     91      1 ;     C4 - H43   
    17     92      1 ;     C4 - H44   
    17     93      1 ;     C4 - H45   
    17     94      1 ;     C4 - H46   
    18     27      1 ;     C5 - C14   
    18     96      1 ;     C5 - H48   
    18     97      1 ;     C5 - H49   
    18     98      1 ;     C5 - H50   
    18     99      1 ;     C5 - H51   
    18    100      1 ;     C5 - H52   
    18    101      1 ;     C5 - H53   
    19     22      1 ;     C6 - C9    
    19     29      1 ;     C6 - C16   
    19     30      1 ;     C6 - C17   
    19     35      1 ;     C6 - C22   
    19     48      1 ;     C6 - H     
    19     54      1 ;     C6 - H6    
    19     55      1 ;     C6 - H7    
    19     56      1 ;     C6 - H8    
    19     63      1 ;     C6 - H15   
    20     19      1 ;     C7 - C6    
    20     21      1 ;     C7 - C8    
    20     26      1 ;     C7 - C13   
    20     28      1 ;     C7 - C15   
    20     32      1 ;     C7 - C19   
    20     33      1 ;     C7 - C20   
    20     50      1 ;     C7 - H2    
    20     70      1 ;     C7 - H22   
    21     24      1 ;     C8 - C11   
    21     31      1 ;     C8 - C18   
    21     40      1 ;     C8 - C27   
    21     41      1 ;     C8 - C28   
    21     49      1 ;     C8 - H1    
    21     57      1 ;     C8 - H9    
    21     58      1 ;     C8 - H10   
    21     59      1 ;     C8 - H11   
    21     88      1 ;     C8 - H40   
    22     23      1 ;     C9 - C10   
    22     25      1 ;     C9 - C12   
    22     36      1 ;     C9 - C23   
    22     37      1 ;     C9 - C24   
    22     42      1 ;     C9 - C29   
    22     53      1 ;     C9 - H5    
    22     79      1 ;     C9 - H31   
    23     24      1 ;    C10 - C11   
    23     43      1 ;    C10 - C30   
    23     44      1 ;    C10 - C31   
    23     45      1 ;    C10 - C32   
    23     51      1 ;    C10 - H3    
    23     60      1 ;    C10 - H12   
    23     61      1 ;    C10 - H13   
    23     62      1 ;    C10 - H14   
    23     95      1 ;    C10 - H47   
    24     27      1 ;    C11 - C14   
    24     39      1 ;    C11 - C26   
    24     46      1 ;    C11 - C33   
    24     47      1 ;    C11 - C34   
    24     52      1 ;    C11 - H4    
    24    102      1 ;    C11 - H54   
    25     35      1 ;    C12 - C22   
    25     48      1 ;    C12 - H     
    26     31      1 ;    C13 - C18   
    26     49      1 ;    C13 - H1    
    27     45      1 ;    C14 - C32   
    27     51      1 ;    C14 - H3    
    29     50      1 ;    C16 - H2    
    29     67      1 ;    C16 - H19   
    29     68      1 ;    C16 - H20   
    29     69      1 ;    C16 - H21   
    30     50      1 ;    C17 - H2    
    30     64      1 ;    C17 - H16   
    30     65      1 ;    C17 - H17   
    30     66      1 ;    C17 - H18   
    31     76      1 ;    C18 - H28   
    31     77      1 ;    C18 - H29   
    31     78      1 ;    C18 - H30   
    32     34      1 ;    C19 - C21   
    32     49      1 ;    C19 - H1    
    32     74      1 ;    C19 - H26   
    32     75      1 ;    C19 - H27   
    33     49      1 ;    C20 - H1    
    33     71      1 ;    C20 - H23   
    33     72      1 ;    C20 - H24   
    33     73      1 ;    C20 - H25   
    34     70      1 ;    C21 - H22   
    35     85      1 ;    C22 - H37   
    35     86      1 ;    C22 - H38   
    35     87      1 ;    C22 - H39   
    36     38      1 ;    C23 - C25   
    36     48      1 ;    C23 - H     
    36     83      1 ;    C23 - H35   
    36     84      1 ;    C23 - H36   
    37     48      1 ;    C24 - H     
    37     80      1 ;    C24 - H32   
    37     81      1 ;    C24 - H33   
    37     82      1 ;    C24 - H34   
    38     79      1 ;    C25 - H31   
    40     52      1 ;    C27 - H4    
    40     92      1 ;    C27 - H44   
    40     93      1 ;    C27 - H45   
    40     94      1 ;    C27 - H46   
    41     52      1 ;    C28 - H4    
    41     89      1 ;    C28 - H41   
    41     90      1 ;    C28 - H42   
    41     91      1 ;    C28 - H43   
    43     53      1 ;    C30 - H5    
    43     99      1 ;    C30 - H51   
    43    100      1 ;    C30 - H52   
    43    101      1 ;    C30 - H53   
    44     53      1 ;    C31 - H5    
    44     96      1 ;    C31 - H48   
    44     97      1 ;    C31 - H49   
    44     98      1 ;    C31 - H50   
    46     51      1 ;    C33 - H3    
    46    106      1 ;    C33 - H58   
    46    107      1 ;    C33 - H59   
    46    108      1 ;    C33 - H60   
    47     51      1 ;    C34 - H3    
    47    103      1 ;    C34 - H55   
    47    104      1 ;    C34 - H56   
    47    105      1 ;    C34 - H57   
    48     79      1 ;      H - H31   
    49     70      1 ;     H1 - H22   
    50     63      1 ;     H2 - H15   
    51    102      1 ;     H3 - H54   
    52     88      1 ;     H4 - H40   
    53     95      1 ;     H5 - H47   
    63     64      1 ;    H15 - H16   
    63     65      1 ;    H15 - H17   
    63     66      1 ;    H15 - H18   
    63     67      1 ;    H15 - H19   
    63     68      1 ;    H15 - H20   
    63     69      1 ;    H15 - H21   
    70     71      1 ;    H22 - H23   
    70     72      1 ;    H22 - H24   
    70     73      1 ;    H22 - H25   
    70     74      1 ;    H22 - H26   
    70     75      1 ;    H22 - H27   
    74     76      1 ;    H26 - H28   
    74     77      1 ;    H26 - H29   
    74     78      1 ;    H26 - H30   
    75     76      1 ;    H27 - H28   
    75     77      1 ;    H27 - H29   
    75     78      1 ;    H27 - H30   
    79     80      1 ;    H31 - H32   
    79     81      1 ;    H31 - H33   
    79     82      1 ;    H31 - H34   
    79     83      1 ;    H31 - H35   
    79     84      1 ;    H31 - H36   
    83     85      1 ;    H35 - H37   
    83     86      1 ;    H35 - H38   
    83     87      1 ;    H35 - H39   
    84     85      1 ;    H36 - H37   
    84     86      1 ;    H36 - H38   
    84     87      1 ;    H36 - H39   
    88     89      1 ;    H40 - H41   
    88     90      1 ;    H40 - H42   
    88     91      1 ;    H40 - H43   
    88     92      1 ;    H40 - H44   
    88     93      1 ;    H40 - H45   
    88     94      1 ;    H40 - H46   
    95     96      1 ;    H47 - H48   
    95     97      1 ;    H47 - H49   
    95     98      1 ;    H47 - H50   
    95     99      1 ;    H47 - H51   
    95    100      1 ;    H47 - H52   
    95    101      1 ;    H47 - H53   
   102    103      1 ;    H54 - H55   
   102    104      1 ;    H54 - H56   
   102    105      1 ;    H54 - H57   
   102    106      1 ;    H54 - H58   
   102    107      1 ;    H54 - H59   
   102    108      1 ;    H54 - H60   

[ angles ]
;   ai     aj     ak    funct   theta         cth
     1     15     19      1 ;    1.0927e+02    6.4517e+02 ;      O - C2   - C6        x -   CT - C   
     1     15     28      1 ;    1.0762e+02    6.4802e+02 ;      O - C2   - C15       x -   CT - CT  
     1     15     50      1 ;    1.1034e+02    4.7028e+02 ;      O - C2   - H2        x -   CT - HC  
     1     20      5      1 ;    1.2320e+02    8.4734e+02 ;      O - C7   - O4        x -    C - O   
     1     20     14      1 ;    1.1080e+02    6.5245e+02 ;      O - C7   - C1        x -    C - CT  
     2     18     23      1 ;    1.0927e+02    6.4517e+02 ;     O1 - C5   - C10       x -   CT - C   
     2     18     42      1 ;    1.0762e+02    6.4802e+02 ;     O1 - C5   - C29       x -   CT - CT  
     2     18     53      1 ;    1.1034e+02    4.7028e+02 ;     O1 - C5   - H5        x -   CT - HC  
     2     22      7      1 ;    1.2320e+02    8.4734e+02 ;     O1 - C9   - O6        x -    C - O   
     2     22     13      1 ;    1.1080e+02    6.5245e+02 ;     O1 - C9   - C         x -    C - CT  
     3     17     21      1 ;    1.0927e+02    6.4517e+02 ;     O2 - C4   - C8        x -   CT - C   
     3     17     39      1 ;    1.0762e+02    6.4802e+02 ;     O2 - C4   - C26       x -   CT - CT  
     3     17     52      1 ;    1.1034e+02    4.7028e+02 ;     O2 - C4   - H4        x -   CT - HC  
     3     24      9      1 ;    1.2320e+02    8.4734e+02 ;     O2 - C11  - O8        x -    C - O   
     3     24     16      1 ;    1.1080e+02    6.5245e+02 ;     O2 - C11  - C3        x -    C - CT  
     4     19     10      1 ;    1.2257e+02    7.2534e+02 ;     O3 - C6   - N         O -    C - N   
     4     19     15      1 ;    1.2290e+02    6.3973e+02 ;     O3 - C6   - C2        O -    C - CT  
     5     20     14      1 ;    1.2290e+02    6.3973e+02 ;     O4 - C7   - C1        O -    C - CT  
     6     21     11      1 ;    1.2257e+02    7.2534e+02 ;     O5 - C8   - N1        O -    C - N   
     6     21     17      1 ;    1.2290e+02    6.3973e+02 ;     O5 - C8   - C4        O -    C - CT  
     7     22     13      1 ;    1.2290e+02    6.3973e+02 ;     O6 - C9   - C         O -    C - CT  
     8     23     12      1 ;    1.2257e+02    7.2534e+02 ;     O7 - C10  - N2        O -    C - N   
     8     23     18      1 ;    1.2290e+02    6.3973e+02 ;     O7 - C10  - C5        O -    C - CT  
     9     24     16      1 ;    1.2290e+02    6.3973e+02 ;     O8 - C11  - C3        O -    C - CT  
    10     13     22      1 ;    1.1194e+02    5.4718e+02 ;      N - C    - C9        N -   CT - C   
    10     13     35      1 ;    1.1278e+02    5.4350e+02 ;      N - C    - C22       N -   CT - CT  
    10     13     48      1 ;    1.0876e+02    4.0242e+02 ;      N - C    - H         N -   CT - HC  
    10     19     15      1 ;    1.1716e+02    5.4551e+02 ;      N - C6   - C2        N -    C - CT  
    10     25     54      1 ;    1.0876e+02    4.0242e+02 ;      N - C12  - H6        N -   CT - HC  
    10     25     55      1 ;    1.0876e+02    4.0242e+02 ;      N - C12  - H7        N -   CT - HC  
    10     25     56      1 ;    1.0876e+02    4.0242e+02 ;      N - C12  - H8        N -   CT - HC  
    11     14     20      1 ;    1.1194e+02    5.4718e+02 ;     N1 - C1   - C7        N -   CT - C   
    11     14     31      1 ;    1.1278e+02    5.4350e+02 ;     N1 - C1   - C18       N -   CT - CT  
    11     14     49      1 ;    1.0876e+02    4.0242e+02 ;     N1 - C1   - H1        N -   CT - HC  
    11     21     17      1 ;    1.1716e+02    5.4551e+02 ;     N1 - C8   - C4        N -    C - CT  
    11     26     57      1 ;    1.0876e+02    4.0242e+02 ;     N1 - C13  - H9        N -   CT - HC  
    11     26     58      1 ;    1.0876e+02    4.0242e+02 ;     N1 - C13  - H10       N -   CT - HC  
    11     26     59      1 ;    1.0876e+02    4.0242e+02 ;     N1 - C13  - H11       N -   CT - HC  
    12     16     24      1 ;    1.1194e+02    5.4718e+02 ;     N2 - C3   - C11       N -   CT - C   
    12     16     45      1 ;    1.1278e+02    5.4350e+02 ;     N2 - C3   - C32       N -   CT - CT  
    12     16     51      1 ;    1.0876e+02    4.0242e+02 ;     N2 - C3   - H3        N -   CT - HC  
    12     23     18      1 ;    1.1716e+02    5.4551e+02 ;     N2 - C10  - C5        N -    C - CT  
    12     27     60      1 ;    1.0876e+02    4.0242e+02 ;     N2 - C14  - H12       N -   CT - HC  
    12     27     61      1 ;    1.0876e+02    4.0242e+02 ;     N2 - C14  - H13       N -   CT - HC  
    12     27     62      1 ;    1.0876e+02    4.0242e+02 ;     N2 - C14  - H14       N -   CT - HC  
    13     10     19      1 ;    1.1883e+02    6.4634e+02 ;      C - N    - C6       CT -    N - C   
    13     10     25      1 ;    1.1675e+02    6.3773e+02 ;      C - N    - C12      CT -    N - CT  
    13     35     36      1 ;    1.1263e+02    5.0099e+02 ;      C - C22  - C23      CT -   CT - CT  
    13     35     37      1 ;    1.1263e+02    5.0099e+02 ;      C - C22  - C24      CT -   CT - CT  
    13     35     79      1 ;    1.0968e+02    3.6208e+02 ;      C - C22  - H31      CT -   CT - HC  
    14     11     21      1 ;    1.1883e+02    6.4634e+02 ;     C1 - N1   - C8       CT -    N - C   
    14     11     26      1 ;    1.1675e+02    6.3773e+02 ;     C1 - N1   - C13      CT -    N - CT  
    14     31     32      1 ;    1.1263e+02    5.0099e+02 ;     C1 - C18  - C19      CT -   CT - CT  
    14     31     33      1 ;    1.1263e+02    5.0099e+02 ;     C1 - C18  - C20      CT -   CT - CT  
    14     31     70      1 ;    1.0968e+02    3.6208e+02 ;     C1 - C18  - H22      CT -   CT - HC  
    15      1     20      1 ;    1.1582e+02    7.4835e+02 ;     C2 - O    - C7       CT -    x - C   
    15     28     29      1 ;    1.1263e+02    5.0099e+02 ;     C2 - C15  - C16      CT -   CT - CT  
    15     28     30      1 ;    1.1263e+02    5.0099e+02 ;     C2 - C15  - C17      CT -   CT - CT  
    15     28     63      1 ;    1.0968e+02    3.6208e+02 ;     C2 - C15  - H15      CT -   CT - HC  
    16     12     23      1 ;    1.1883e+02    6.4634e+02 ;     C3 - N2   - C10      CT -    N - C   
    16     12     27      1 ;    1.1675e+02    6.3773e+02 ;     C3 - N2   - C14      CT -    N - CT  
    16     45     46      1 ;    1.1263e+02    5.0099e+02 ;     C3 - C32  - C33      CT -   CT - CT  
    16     45     47      1 ;    1.1263e+02    5.0099e+02 ;     C3 - C32  - C34      CT -   CT - CT  
    16     45    102      1 ;    1.0968e+02    3.6208e+02 ;     C3 - C32  - H54      CT -   CT - HC  
    17      3     24      1 ;    1.1582e+02    7.4835e+02 ;     C4 - O2   - C11      CT -    x - C   
    17     39     40      1 ;    1.1263e+02    5.0099e+02 ;     C4 - C26  - C27      CT -   CT - CT  
    17     39     41      1 ;    1.1263e+02    5.0099e+02 ;     C4 - C26  - C28      CT -   CT - CT  
    17     39     88      1 ;    1.0968e+02    3.6208e+02 ;     C4 - C26  - H40      CT -   CT - HC  
    18      2     22      1 ;    1.1582e+02    7.4835e+02 ;     C5 - O1   - C9       CT -    x - C   
    18     42     43      1 ;    1.1263e+02    5.0099e+02 ;     C5 - C29  - C30      CT -   CT - CT  
    18     42     44      1 ;    1.1263e+02    5.0099e+02 ;     C5 - C29  - C31      CT -   CT - CT  
    18     42     95      1 ;    1.0968e+02    3.6208e+02 ;     C5 - C29  - H47      CT -   CT - HC  
    19     10     25      1 ;    1.1883e+02    6.4634e+02 ;     C6 - N    - C12       C -    N - CT  
    19     15     28      1 ;    1.1143e+02    5.0509e+02 ;     C6 - C2   - C15       C -   CT - CT  
    19     15     50      1 ;    1.0837e+02    3.6602e+02 ;     C6 - C2   - H2        C -   CT - HC  
    20     14     31      1 ;    1.1143e+02    5.0509e+02 ;     C7 - C1   - C18       C -   CT - CT  
    20     14     49      1 ;    1.0837e+02    3.6602e+02 ;     C7 - C1   - H1        C -   CT - HC  
    21     11     26      1 ;    1.1883e+02    6.4634e+02 ;     C8 - N1   - C13       C -    N - CT  
    21     17     39      1 ;    1.1143e+02    5.0509e+02 ;     C8 - C4   - C26       C -   CT - CT  
    21     17     52      1 ;    1.0837e+02    3.6602e+02 ;     C8 - C4   - H4        C -   CT - HC  
    22     13     35      1 ;    1.1143e+02    5.0509e+02 ;     C9 - C    - C22       C -   CT - CT  
    22     13     48      1 ;    1.0837e+02    3.6602e+02 ;     C9 - C    - H         C -   CT - HC  
    23     12     27      1 ;    1.1883e+02    6.4634e+02 ;    C10 - N2   - C14       C -    N - CT  
    23     18     42      1 ;    1.1143e+02    5.0509e+02 ;    C10 - C5   - C29       C -   CT - CT  
    23     18     53      1 ;    1.0837e+02    3.6602e+02 ;    C10 - C5   - H5        C -   CT - HC  
    24     16     45      1 ;    1.1143e+02    5.0509e+02 ;    C11 - C3   - C32       C -   CT - CT  
    24     16     51      1 ;    1.0837e+02    3.6602e+02 ;    C11 - C3   - H3        C -   CT - HC  
    28     15     50      1 ;    1.0959e+02    3.6217e+02 ;    C15 - C2   - H2       CT -   CT - HC  
    28     29     64      1 ;    1.0968e+02    3.6208e+02 ;    C15 - C16  - H16      CT -   CT - HC  
    28     29     65      1 ;    1.0968e+02    3.6208e+02 ;    C15 - C16  - H17      CT -   CT - HC  
    28     29     66      1 ;    1.0968e+02    3.6208e+02 ;    C15 - C16  - H18      CT -   CT - HC  
    28     30     67      1 ;    1.0968e+02    3.6208e+02 ;    C15 - C17  - H19      CT -   CT - HC  
    28     30     68      1 ;    1.0968e+02    3.6208e+02 ;    C15 - C17  - H20      CT -   CT - HC  
    28     30     69      1 ;    1.0968e+02    3.6208e+02 ;    C15 - C17  - H21      CT -   CT - HC  
    29     28     30      1 ;    1.1263e+02    5.0099e+02 ;    C16 - C15  - C17      CT -   CT - CT  
    29     28     63      1 ;    1.0968e+02    3.6208e+02 ;    C16 - C15  - H15      CT -   CT - HC  
    30     28     63      1 ;    1.0968e+02    3.6208e+02 ;    C17 - C15  - H15      CT -   CT - HC  
    31     14     49      1 ;    1.0959e+02    3.6217e+02 ;    C18 - C1   - H1       CT -   CT - HC  
    31     32     71      1 ;    1.0968e+02    3.6208e+02 ;    C18 - C19  - H23      CT -   CT - HC  
    31     32     72      1 ;    1.0968e+02    3.6208e+02 ;    C18 - C19  - H24      CT -   CT - HC  
    31     32     73      1 ;    1.0968e+02    3.6208e+02 ;    C18 - C19  - H25      CT -   CT - HC  
    31     33     34      1 ;    1.1263e+02    5.0099e+02 ;    C18 - C20  - C21      CT -   CT - CT  
    31     33     74      1 ;    1.0968e+02    3.6208e+02 ;    C18 - C20  - H26      CT -   CT - HC  
    31     33     75      1 ;    1.0968e+02    3.6208e+02 ;    C18 - C20  - H27      CT -   CT - HC  
    32     31     33      1 ;    1.1263e+02    5.0099e+02 ;    C19 - C18  - C20      CT -   CT - CT  
    32     31     70      1 ;    1.0968e+02    3.6208e+02 ;    C19 - C18  - H22      CT -   CT - HC  
    33     31     70      1 ;    1.0968e+02    3.6208e+02 ;    C20 - C18  - H22      CT -   CT - HC  
    33     34     76      1 ;    1.0968e+02    3.6208e+02 ;    C20 - C21  - H28      CT -   CT - HC  
    33     34     77      1 ;    1.0968e+02    3.6208e+02 ;    C20 - C21  - H29      CT -   CT - HC  
    33     34     78      1 ;    1.0968e+02    3.6208e+02 ;    C20 - C21  - H30      CT -   CT - HC  
    34     33     74      1 ;    1.0968e+02    3.6208e+02 ;    C21 - C20  - H26      CT -   CT - HC  
    34     33     75      1 ;    1.0968e+02    3.6208e+02 ;    C21 - C20  - H27      CT -   CT - HC  
    35     13     48      1 ;    1.0959e+02    3.6217e+02 ;    C22 - C    - H        CT -   CT - HC  
    35     36     80      1 ;    1.0968e+02    3.6208e+02 ;    C22 - C23  - H32      CT -   CT - HC  
    35     36     81      1 ;    1.0968e+02    3.6208e+02 ;    C22 - C23  - H33      CT -   CT - HC  
    35     36     82      1 ;    1.0968e+02    3.6208e+02 ;    C22 - C23  - H34      CT -   CT - HC  
    35     37     38      1 ;    1.1263e+02    5.0099e+02 ;    C22 - C24  - C25      CT -   CT - CT  
    35     37     83      1 ;    1.0968e+02    3.6208e+02 ;    C22 - C24  - H35      CT -   CT - HC  
    35     37     84      1 ;    1.0968e+02    3.6208e+02 ;    C22 - C24  - H36      CT -   CT - HC  
    36     35     37      1 ;    1.1263e+02    5.0099e+02 ;    C23 - C22  - C24      CT -   CT - CT  
    36     35     79      1 ;    1.0968e+02    3.6208e+02 ;    C23 - C22  - H31      CT -   CT - HC  
    37     35     79      1 ;    1.0968e+02    3.6208e+02 ;    C24 - C22  - H31      CT -   CT - HC  
    37     38     85      1 ;    1.0968e+02    3.6208e+02 ;    C24 - C25  - H37      CT -   CT - HC  
    37     38     86      1 ;    1.0968e+02    3.6208e+02 ;    C24 - C25  - H38      CT -   CT - HC  
    37     38     87      1 ;    1.0968e+02    3.6208e+02 ;    C24 - C25  - H39      CT -   CT - HC  
    38     37     83      1 ;    1.0968e+02    3.6208e+02 ;    C25 - C24  - H35      CT -   CT - HC  
    38     37     84      1 ;    1.0968e+02    3.6208e+02 ;    C25 - C24  - H36      CT -   CT - HC  
    39     17     52      1 ;    1.0959e+02    3.6217e+02 ;    C26 - C4   - H4       CT -   CT - HC  
    39     40     89      1 ;    1.0968e+02    3.6208e+02 ;    C26 - C27  - H41      CT -   CT - HC  
    39     40     90      1 ;    1.0968e+02    3.6208e+02 ;    C26 - C27  - H42      CT -   CT - HC  
    39     40     91      1 ;    1.0968e+02    3.6208e+02 ;    C26 - C27  - H43      CT -   CT - HC  
    39     41     92      1 ;    1.0968e+02    3.6208e+02 ;    C26 - C28  - H44      CT -   CT - HC  
    39     41     93      1 ;    1.0968e+02    3.6208e+02 ;    C26 - C28  - H45      CT -   CT - HC  
    39     41     94      1 ;    1.0968e+02    3.6208e+02 ;    C26 - C28  - H46      CT -   CT - HC  
    40     39     41      1 ;    1.1263e+02    5.0099e+02 ;    C27 - C26  - C28      CT -   CT - CT  
    40     39     88      1 ;    1.0968e+02    3.6208e+02 ;    C27 - C26  - H40      CT -   CT - HC  
    41     39     88      1 ;    1.0968e+02    3.6208e+02 ;    C28 - C26  - H40      CT -   CT - HC  
    42     18     53      1 ;    1.0959e+02    3.6217e+02 ;    C29 - C5   - H5       CT -   CT - HC  
    42     43     96      1 ;    1.0968e+02    3.6208e+02 ;    C29 - C30  - H48      CT -   CT - HC  
    42     43     97      1 ;    1.0968e+02    3.6208e+02 ;    C29 - C30  - H49      CT -   CT - HC  
    42     43     98      1 ;    1.0968e+02    3.6208e+02 ;    C29 - C30  - H50      CT -   CT - HC  
    42     44     99      1 ;    1.0968e+02    3.6208e+02 ;    C29 - C31  - H51      CT -   CT - HC  
    42     44    100      1 ;    1.0968e+02    3.6208e+02 ;    C29 - C31  - H52      CT -   CT - HC  
    42     44    101      1 ;    1.0968e+02    3.6208e+02 ;    C29 - C31  - H53      CT -   CT - HC  
    43     42     44      1 ;    1.1263e+02    5.0099e+02 ;    C30 - C29  - C31      CT -   CT - CT  
    43     42     95      1 ;    1.0968e+02    3.6208e+02 ;    C30 - C29  - H47      CT -   CT - HC  
    44     42     95      1 ;    1.0968e+02    3.6208e+02 ;    C31 - C29  - H47      CT -   CT - HC  
    45     16     51      1 ;    1.0959e+02    3.6217e+02 ;    C32 - C3   - H3       CT -   CT - HC  
    45     46    103      1 ;    1.0968e+02    3.6208e+02 ;    C32 - C33  - H55      CT -   CT - HC  
    45     46    104      1 ;    1.0968e+02    3.6208e+02 ;    C32 - C33  - H56      CT -   CT - HC  
    45     46    105      1 ;    1.0968e+02    3.6208e+02 ;    C32 - C33  - H57      CT -   CT - HC  
    45     47    106      1 ;    1.0968e+02    3.6208e+02 ;    C32 - C34  - H58      CT -   CT - HC  
    45     47    107      1 ;    1.0968e+02    3.6208e+02 ;    C32 - C34  - H59      CT -   CT - HC  
    45     47    108      1 ;    1.0968e+02    3.6208e+02 ;    C32 - C34  - H60      CT -   CT - HC  
    46     45     47      1 ;    1.1263e+02    5.0099e+02 ;    C33 - C32  - C34      CT -   CT - CT  
    46     45    102      1 ;    1.0968e+02    3.6208e+02 ;    C33 - C32  - H54      CT -   CT - HC  
    47     45    102      1 ;    1.0968e+02    3.6208e+02 ;    C34 - C32  - H54      CT -   CT - HC  
    54     25     55      1 ;    1.0855e+02    2.9824e+02 ;     H6 - C12  - H7       HC -   CT - HC  
    54     25     56      1 ;    1.0855e+02    2.9824e+02 ;     H6 - C12  - H8       HC -   CT - HC  
    55     25     56      1 ;    1.0855e+02    2.9824e+02 ;     H7 - C12  - H8       HC -   CT - HC  
    57     26     58      1 ;    1.0855e+02    2.9824e+02 ;     H9 - C13  - H10      HC -   CT - HC  
    57     26     59      1 ;    1.0855e+02    2.9824e+02 ;     H9 - C13  - H11      HC -   CT - HC  
    58     26     59      1 ;    1.0855e+02    2.9824e+02 ;    H10 - C13  - H11      HC -   CT - HC  
    60     27     61      1 ;    1.0855e+02    2.9824e+02 ;    H12 - C14  - H13      HC -   CT - HC  
    60     27     62      1 ;    1.0855e+02    2.9824e+02 ;    H12 - C14  - H14      HC -   CT - HC  
    61     27     62      1 ;    1.0855e+02    2.9824e+02 ;    H13 - C14  - H14      HC -   CT - HC  
    64     29     65      1 ;    1.0773e+02    2.9957e+02 ;    H16 - C16  - H17      HC -   CT - HC  
    64     29     66      1 ;    1.0773e+02    2.9957e+02 ;    H16 - C16  - H18      HC -   CT - HC  
    65     29     66      1 ;    1.0773e+02    2.9957e+02 ;    H17 - C16  - H18      HC -   CT - HC  
    67     30     68      1 ;    1.0773e+02    2.9957e+02 ;    H19 - C17  - H20      HC -   CT - HC  
    67     30     69      1 ;    1.0773e+02    2.9957e+02 ;    H19 - C17  - H21      HC -   CT - HC  
    68     30     69      1 ;    1.0773e+02    2.9957e+02 ;    H20 - C17  - H21      HC -   CT - HC  
    71     32     72      1 ;    1.0773e+02    2.9957e+02 ;    H23 - C19  - H24      HC -   CT - HC  
    71     32     73      1 ;    1.0773e+02    2.9957e+02 ;    H23 - C19  - H25      HC -   CT - HC  
    72     32     73      1 ;    1.0773e+02    2.9957e+02 ;    H24 - C19  - H25      HC -   CT - HC  
    74     33     75      1 ;    1.0773e+02    2.9957e+02 ;    H26 - C20  - H27      HC -   CT - HC  
    76     34     77      1 ;    1.0773e+02    2.9957e+02 ;    H28 - C21  - H29      HC -   CT - HC  
    76     34     78      1 ;    1.0773e+02    2.9957e+02 ;    H28 - C21  - H30      HC -   CT - HC  
    77     34     78      1 ;    1.0773e+02    2.9957e+02 ;    H29 - C21  - H30      HC -   CT - HC  
    80     36     81      1 ;    1.0773e+02    2.9957e+02 ;    H32 - C23  - H33      HC -   CT - HC  
    80     36     82      1 ;    1.0773e+02    2.9957e+02 ;    H32 - C23  - H34      HC -   CT - HC  
    81     36     82      1 ;    1.0773e+02    2.9957e+02 ;    H33 - C23  - H34      HC -   CT - HC  
    83     37     84      1 ;    1.0773e+02    2.9957e+02 ;    H35 - C24  - H36      HC -   CT - HC  
    85     38     86      1 ;    1.0773e+02    2.9957e+02 ;    H37 - C25  - H38      HC -   CT - HC  
    85     38     87      1 ;    1.0773e+02    2.9957e+02 ;    H37 - C25  - H39      HC -   CT - HC  
    86     38     87      1 ;    1.0773e+02    2.9957e+02 ;    H38 - C25  - H39      HC -   CT - HC  
    89     40     90      1 ;    1.0773e+02    2.9957e+02 ;    H41 - C27  - H42      HC -   CT - HC  
    89     40     91      1 ;    1.0773e+02    2.9957e+02 ;    H41 - C27  - H43      HC -   CT - HC  
    90     40     91      1 ;    1.0773e+02    2.9957e+02 ;    H42 - C27  - H43      HC -   CT - HC  
    92     41     93      1 ;    1.0773e+02    2.9957e+02 ;    H44 - C28  - H45      HC -   CT - HC  
    92     41     94      1 ;    1.0773e+02    2.9957e+02 ;    H44 - C28  - H46      HC -   CT - HC  
    93     41     94      1 ;    1.0773e+02    2.9957e+02 ;    H45 - C28  - H46      HC -   CT - HC  
    96     43     97      1 ;    1.0773e+02    2.9957e+02 ;    H48 - C30  - H49      HC -   CT - HC  
    96     43     98      1 ;    1.0773e+02    2.9957e+02 ;    H48 - C30  - H50      HC -   CT - HC  
    97     43     98      1 ;    1.0773e+02    2.9957e+02 ;    H49 - C30  - H50      HC -   CT - HC  
    99     44    100      1 ;    1.0773e+02    2.9957e+02 ;    H51 - C31  - H52      HC -   CT - HC  
    99     44    101      1 ;    1.0773e+02    2.9957e+02 ;    H51 - C31  - H53      HC -   CT - HC  
   100     44    101      1 ;    1.0773e+02    2.9957e+02 ;    H52 - C31  - H53      HC -   CT - HC  
   103     46    104      1 ;    1.0773e+02    2.9957e+02 ;    H55 - C33  - H56      HC -   CT - HC  
   103     46    105      1 ;    1.0773e+02    2.9957e+02 ;    H55 - C33  - H57      HC -   CT - HC  
   104     46    105      1 ;    1.0773e+02    2.9957e+02 ;    H56 - C33  - H57      HC -   CT - HC  
   106     47    107      1 ;    1.0773e+02    2.9957e+02 ;    H58 - C34  - H59      HC -   CT - HC  
   106     47    108      1 ;    1.0773e+02    2.9957e+02 ;    H58 - C34  - H60      HC -   CT - HC  
   107     47    108      1 ;    1.0773e+02    2.9957e+02 ;    H59 - C34  - H60      HC -   CT - HC  

[ dihedrals ] ; propers
; for gromacs 4.5 or higher, using funct 9
;    i      j      k      l   func   phase     kd      pn
     1     15     19      4      9 ;   180.00   0.00000   1 ;      O-    C2-    C6-    O3
     1     15     19      4      9 ;   180.00   0.87864   3 ;      O-    C2-    C6-    O3
     1     15     19      4      9 ;   180.00   4.47688   2 ;      O-    C2-    C6-    O3
     1     15     19     10      9 ;   180.00   0.00000   2 ;      O-    C2-    C6-     N
     1     15     28     29      9 ;     0.00   0.65084   3 ;      O-    C2-   C15-   C16
     1     15     28     30      9 ;     0.00   0.65084   3 ;      O-    C2-   C15-   C17
     1     15     28     63      9 ;     0.00   0.00000   0 ;      O-    C2-   C15-   H15
     1     15     28     63      9 ;     0.00   1.04600   1 ;      O-    C2-   C15-   H15
     1     20     14     11      9 ;   180.00   0.00000   2 ;      O-    C7-    C1-    N1
     1     20     14     31      9 ;   180.00   0.00000   2 ;      O-    C7-    C1-   C18
     1     20     14     49      9 ;   180.00   0.00000   2 ;      O-    C7-    C1-    H1
     2     18     23      8      9 ;   180.00   0.00000   1 ;     O1-    C5-   C10-    O7
     2     18     23      8      9 ;   180.00   0.87864   3 ;     O1-    C5-   C10-    O7
     2     18     23      8      9 ;   180.00   4.47688   2 ;     O1-    C5-   C10-    O7
     2     18     23     12      9 ;   180.00   0.00000   2 ;     O1-    C5-   C10-    N2
     2     18     42     43      9 ;     0.00   0.65084   3 ;     O1-    C5-   C29-   C30
     2     18     42     44      9 ;     0.00   0.65084   3 ;     O1-    C5-   C29-   C31
     2     18     42     95      9 ;     0.00   0.00000   0 ;     O1-    C5-   C29-   H47
     2     18     42     95      9 ;     0.00   1.04600   1 ;     O1-    C5-   C29-   H47
     2     22     13     10      9 ;   180.00   0.00000   2 ;     O1-    C9-     C-     N
     2     22     13     35      9 ;   180.00   0.00000   2 ;     O1-    C9-     C-   C22
     2     22     13     48      9 ;   180.00   0.00000   2 ;     O1-    C9-     C-     H
     3     17     21      6      9 ;   180.00   0.00000   1 ;     O2-    C4-    C8-    O5
     3     17     21      6      9 ;   180.00   0.87864   3 ;     O2-    C4-    C8-    O5
     3     17     21      6      9 ;   180.00   4.47688   2 ;     O2-    C4-    C8-    O5
     3     17     21     11      9 ;   180.00   0.00000   2 ;     O2-    C4-    C8-    N1
     3     17     39     40      9 ;     0.00   0.65084   3 ;     O2-    C4-   C26-   C27
     3     17     39     41      9 ;     0.00   0.65084   3 ;     O2-    C4-   C26-   C28
     3     17     39     88      9 ;     0.00   0.00000   0 ;     O2-    C4-   C26-   H40
     3     17     39     88      9 ;     0.00   1.04600   1 ;     O2-    C4-   C26-   H40
     3     24     16     12      9 ;   180.00   0.00000   2 ;     O2-   C11-    C3-    N2
     3     24     16     45      9 ;   180.00   0.00000   2 ;     O2-   C11-    C3-   C32
     3     24     16     51      9 ;   180.00   0.00000   2 ;     O2-   C11-    C3-    H3
     4     19     10     13      9 ;   180.00  10.46000   2 ;     O3-    C6-     N-     C
     4     19     10     25      9 ;   180.00  10.46000   2 ;     O3-    C6-     N-   C12
     4     19     15     28      9 ;     0.00   2.84512   1 ;     O3-    C6-    C2-   C15
     4     19     15     28      9 ;   180.00   0.83680   2 ;     O3-    C6-    C2-   C15
     4     19     15     28      9 ;   180.00   1.84096   3 ;     O3-    C6-    C2-   C15
     4     19     15     50      9 ;     0.00   3.34720   1 ;     O3-    C6-    C2-    H2
     4     19     15     50      9 ;   180.00   0.33472   3 ;     O3-    C6-    C2-    H2
     5     20     14     11      9 ;   180.00   0.00000   2 ;     O4-    C7-    C1-    N1
     5     20     14     31      9 ;     0.00   2.84512   1 ;     O4-    C7-    C1-   C18
     5     20     14     31      9 ;   180.00   0.83680   2 ;     O4-    C7-    C1-   C18
     5     20     14     31      9 ;   180.00   1.84096   3 ;     O4-    C7-    C1-   C18
     5     20     14     49      9 ;     0.00   3.34720   1 ;     O4-    C7-    C1-    H1
     5     20     14     49      9 ;   180.00   0.33472   3 ;     O4-    C7-    C1-    H1
     6     21     11     14      9 ;   180.00  10.46000   2 ;     O5-    C8-    N1-    C1
     6     21     11     26      9 ;   180.00  10.46000   2 ;     O5-    C8-    N1-   C13
     6     21     17     39      9 ;     0.00   2.84512   1 ;     O5-    C8-    C4-   C26
     6     21     17     39      9 ;   180.00   0.83680   2 ;     O5-    C8-    C4-   C26
     6     21     17     39      9 ;   180.00   1.84096   3 ;     O5-    C8-    C4-   C26
     6     21     17     52      9 ;     0.00   3.34720   1 ;     O5-    C8-    C4-    H4
     6     21     17     52      9 ;   180.00   0.33472   3 ;     O5-    C8-    C4-    H4
     7     22      2     18      9 ;   180.00   5.85760   1 ;     O6-    C9-    O1-    C5
     7     22      2     18      9 ;   180.00  11.29680   2 ;     O6-    C9-    O1-    C5
     7     22     13     10      9 ;   180.00   0.00000   2 ;     O6-    C9-     C-     N
     7     22     13     35      9 ;     0.00   2.84512   1 ;     O6-    C9-     C-   C22
     7     22     13     35      9 ;   180.00   0.83680   2 ;     O6-    C9-     C-   C22
     7     22     13     35      9 ;   180.00   1.84096   3 ;     O6-    C9-     C-   C22
     7     22     13     48      9 ;     0.00   3.34720   1 ;     O6-    C9-     C-     H
     7     22     13     48      9 ;   180.00   0.33472   3 ;     O6-    C9-     C-     H
     8     23     12     16      9 ;   180.00  10.46000   2 ;     O7-   C10-    N2-    C3
     8     23     12     27      9 ;   180.00  10.46000   2 ;     O7-   C10-    N2-   C14
     8     23     18     42      9 ;     0.00   2.84512   1 ;     O7-   C10-    C5-   C29
     8     23     18     42      9 ;   180.00   0.83680   2 ;     O7-   C10-    C5-   C29
     8     23     18     42      9 ;   180.00   1.84096   3 ;     O7-   C10-    C5-   C29
     8     23     18     53      9 ;     0.00   3.34720   1 ;     O7-   C10-    C5-    H5
     8     23     18     53      9 ;   180.00   0.33472   3 ;     O7-   C10-    C5-    H5
     9     24      3     17      9 ;   180.00   5.85760   1 ;     O8-   C11-    O2-    C4
     9     24      3     17      9 ;   180.00  11.29680   2 ;     O8-   C11-    O2-    C4
     9     24     16     12      9 ;   180.00   0.00000   2 ;     O8-   C11-    C3-    N2
     9     24     16     45      9 ;     0.00   2.84512   1 ;     O8-   C11-    C3-   C32
     9     24     16     45      9 ;   180.00   0.83680   2 ;     O8-   C11-    C3-   C32
     9     24     16     45      9 ;   180.00   1.84096   3 ;     O8-   C11-    C3-   C32
     9     24     16     51      9 ;     0.00   3.34720   1 ;     O8-   C11-    C3-    H3
     9     24     16     51      9 ;   180.00   0.33472   3 ;     O8-   C11-    C3-    H3
    10     13     35     36      9 ;     0.00   0.41840   3 ;      N-     C-   C22-   C23
    10     13     35     37      9 ;     0.00   0.41840   3 ;      N-     C-   C22-   C24
    10     13     35     79      9 ;     0.00   0.65084   3 ;      N-     C-   C22-   H31
    10     19     15     28      9 ;   180.00   0.00000   4 ;      N-    C6-    C2-   C15
    10     19     15     28      9 ;   180.00   2.97064   2 ;      N-    C6-    C2-   C15
    10     19     15     50      9 ;   180.00   0.00000   2 ;      N-    C6-    C2-    H2
    11     14     31     32      9 ;     0.00   0.41840   3 ;     N1-    C1-   C18-   C19
    11     14     31     33      9 ;     0.00   0.41840   3 ;     N1-    C1-   C18-   C20
    11     14     31     70      9 ;     0.00   0.65084   3 ;     N1-    C1-   C18-   H22
    11     21     17     39      9 ;   180.00   0.00000   4 ;     N1-    C8-    C4-   C26
    11     21     17     39      9 ;   180.00   2.97064   2 ;     N1-    C8-    C4-   C26
    11     21     17     52      9 ;   180.00   0.00000   2 ;     N1-    C8-    C4-    H4
    12     16     45     46      9 ;     0.00   0.41840   3 ;     N2-    C3-   C32-   C33
    12     16     45     47      9 ;     0.00   0.41840   3 ;     N2-    C3-   C32-   C34
    12     16     45    102      9 ;     0.00   0.65084   3 ;     N2-    C3-   C32-   H54
    12     23     18     42      9 ;   180.00   0.00000   4 ;     N2-   C10-    C5-   C29
    12     23     18     42      9 ;   180.00   2.97064   2 ;     N2-   C10-    C5-   C29
    12     23     18     53      9 ;   180.00   0.00000   2 ;     N2-   C10-    C5-    H5
    13     10     19     15      9 ;     0.00   2.09200   3 ;      C-     N-    C6-    C2
    13     10     19     15      9 ;     0.00  12.25912   1 ;      C-     N-    C6-    C2
    13     10     19     15      9 ;   180.00   5.89944   2 ;      C-     N-    C6-    C2
    13     10     25     54      9 ;     0.00   0.00000   0 ;      C-     N-   C12-    H6
    13     10     25     55      9 ;     0.00   0.00000   0 ;      C-     N-   C12-    H7
    13     10     25     56      9 ;     0.00   0.00000   0 ;      C-     N-   C12-    H8
    13     22      2     18      9 ;     0.00   3.13800   3 ;      C-    C9-    O1-    C5
    13     22      2     18      9 ;   180.00   7.90776   1 ;      C-    C9-    O1-    C5
    13     22      2     18      9 ;   180.00  13.76536   2 ;      C-    C9-    O1-    C5
    13     35     36     80      9 ;     0.00   0.54392   3 ;      C-   C22-   C23-   H32
    13     35     36     81      9 ;     0.00   0.54392   3 ;      C-   C22-   C23-   H33
    13     35     36     82      9 ;     0.00   0.54392   3 ;      C-   C22-   C23-   H34
    13     35     37     38      9 ;     0.00   2.17568   3 ;      C-   C22-   C24-   C25
    13     35     37     83      9 ;     0.00   0.54392   3 ;      C-   C22-   C24-   H35
    13     35     37     84      9 ;     0.00   0.54392   3 ;      C-   C22-   C24-   H36
    14     11     21     17      9 ;     0.00   2.09200   3 ;     C1-    N1-    C8-    C4
    14     11     21     17      9 ;     0.00  12.25912   1 ;     C1-    N1-    C8-    C4
    14     11     21     17      9 ;   180.00   5.89944   2 ;     C1-    N1-    C8-    C4
    14     11     26     57      9 ;     0.00   0.00000   0 ;     C1-    N1-   C13-    H9
    14     11     26     58      9 ;     0.00   0.00000   0 ;     C1-    N1-   C13-   H10
    14     11     26     59      9 ;     0.00   0.00000   0 ;     C1-    N1-   C13-   H11
    14     31     32     71      9 ;     0.00   0.54392   3 ;     C1-   C18-   C19-   H23
    14     31     32     72      9 ;     0.00   0.54392   3 ;     C1-   C18-   C19-   H24
    14     31     32     73      9 ;     0.00   0.54392   3 ;     C1-   C18-   C19-   H25
    14     31     33     34      9 ;     0.00   2.17568   3 ;     C1-   C18-   C20-   C21
    14     31     33     74      9 ;     0.00   0.54392   3 ;     C1-   C18-   C20-   H26
    14     31     33     75      9 ;     0.00   0.54392   3 ;     C1-   C18-   C20-   H27
    15      1     20      5      9 ;   180.00   5.85760   1 ;     C2-     O-    C7-    O4
    15      1     20      5      9 ;   180.00  11.29680   2 ;     C2-     O-    C7-    O4
    15      1     20     14      9 ;     0.00   3.13800   3 ;     C2-     O-    C7-    C1
    15      1     20     14      9 ;   180.00   7.90776   1 ;     C2-     O-    C7-    C1
    15      1     20     14      9 ;   180.00  13.76536   2 ;     C2-     O-    C7-    C1
    15     19     10     25      9 ;     0.00   2.09200   3 ;     C2-    C6-     N-   C12
    15     19     10     25      9 ;     0.00  12.25912   1 ;     C2-    C6-     N-   C12
    15     19     10     25      9 ;   180.00   5.89944   2 ;     C2-    C6-     N-   C12
    15     28     29     64      9 ;     0.00   0.54392   3 ;     C2-   C15-   C16-   H16
    15     28     29     65      9 ;     0.00   0.54392   3 ;     C2-   C15-   C16-   H17
    15     28     29     66      9 ;     0.00   0.54392   3 ;     C2-   C15-   C16-   H18
    15     28     30     67      9 ;     0.00   0.54392   3 ;     C2-   C15-   C17-   H19
    15     28     30     68      9 ;     0.00   0.54392   3 ;     C2-   C15-   C17-   H20
    15     28     30     69      9 ;     0.00   0.54392   3 ;     C2-   C15-   C17-   H21
    16     12     23     18      9 ;     0.00   2.09200   3 ;     C3-    N2-   C10-    C5
    16     12     23     18      9 ;     0.00  12.25912   1 ;     C3-    N2-   C10-    C5
    16     12     23     18      9 ;   180.00   5.89944   2 ;     C3-    N2-   C10-    C5
    16     12     27     60      9 ;     0.00   0.00000   0 ;     C3-    N2-   C14-   H12
    16     12     27     61      9 ;     0.00   0.00000   0 ;     C3-    N2-   C14-   H13
    16     12     27     62      9 ;     0.00   0.00000   0 ;     C3-    N2-   C14-   H14
    16     24      3     17      9 ;     0.00   3.13800   3 ;     C3-   C11-    O2-    C4
    16     24      3     17      9 ;   180.00   7.90776   1 ;     C3-   C11-    O2-    C4
    16     24      3     17      9 ;   180.00  13.76536   2 ;     C3-   C11-    O2-    C4
    16     45     46    103      9 ;     0.00   0.54392   3 ;     C3-   C32-   C33-   H55
    16     45     46    104      9 ;     0.00   0.54392   3 ;     C3-   C32-   C33-   H56
    16     45     46    105      9 ;     0.00   0.54392   3 ;     C3-   C32-   C33-   H57
    16     45     47    106      9 ;     0.00   0.54392   3 ;     C3-   C32-   C34-   H58
    16     45     47    107      9 ;     0.00   0.54392   3 ;     C3-   C32-   C34-   H59
    16     45     47    108      9 ;     0.00   0.54392   3 ;     C3-   C32-   C34-   H60
    17     21     11     26      9 ;     0.00   2.09200   3 ;     C4-    C8-    N1-   C13
    17     21     11     26      9 ;     0.00  12.25912   1 ;     C4-    C8-    N1-   C13
    17     21     11     26      9 ;   180.00   5.89944   2 ;     C4-    C8-    N1-   C13
    17     39     40     89      9 ;     0.00   0.54392   3 ;     C4-   C26-   C27-   H41
    17     39     40     90      9 ;     0.00   0.54392   3 ;     C4-   C26-   C27-   H42
    17     39     40     91      9 ;     0.00   0.54392   3 ;     C4-   C26-   C27-   H43
    17     39     41     92      9 ;     0.00   0.54392   3 ;     C4-   C26-   C28-   H44
    17     39     41     93      9 ;     0.00   0.54392   3 ;     C4-   C26-   C28-   H45
    17     39     41     94      9 ;     0.00   0.54392   3 ;     C4-   C26-   C28-   H46
    18     23     12     27      9 ;     0.00   2.09200   3 ;     C5-   C10-    N2-   C14
    18     23     12     27      9 ;     0.00  12.25912   1 ;     C5-   C10-    N2-   C14
    18     23     12     27      9 ;   180.00   5.89944   2 ;     C5-   C10-    N2-   C14
    18     42     43     96      9 ;     0.00   0.54392   3 ;     C5-   C29-   C30-   H48
    18     42     43     97      9 ;     0.00   0.54392   3 ;     C5-   C29-   C30-   H49
    18     42     43     98      9 ;     0.00   0.54392   3 ;     C5-   C29-   C30-   H50
    18     42     44     99      9 ;     0.00   0.54392   3 ;     C5-   C29-   C31-   H51
    18     42     44    100      9 ;     0.00   0.54392   3 ;     C5-   C29-   C31-   H52
    18     42     44    101      9 ;     0.00   0.54392   3 ;     C5-   C29-   C31-   H53
    19     10     13     22      9 ;     0.00   2.67776   1 ;     C6-     N-     C-    C9
    19     10     13     22      9 ;   180.00   1.63176   2 ;     C6-     N-     C-    C9
    19     10     13     35      9 ;     0.00   9.45584   1 ;     C6-     N-     C-   C22
    19     10     13     35      9 ;   180.00   0.12552   3 ;     C6-     N-     C-   C22
    19     10     13     35      9 ;   180.00   2.71960   4 ;     C6-     N-     C-   C22
    19     10     13     48      9 ;   180.00   0.00000   2 ;     C6-     N-     C-     H
    19     10     25     54      9 ;   180.00   0.00000   2 ;     C6-     N-   C12-    H6
    19     10     25     55      9 ;   180.00   0.00000   2 ;     C6-     N-   C12-    H7
    19     10     25     56      9 ;   180.00   0.00000   2 ;     C6-     N-   C12-    H8
    19     15     28     29      9 ;     0.00   0.00000   0 ;     C6-    C2-   C15-   C16
    19     15     28     29      9 ;     0.00   0.16736   2 ;     C6-    C2-   C15-   C16
    19     15     28     29      9 ;   180.00   1.92464   1 ;     C6-    C2-   C15-   C16
    19     15     28     30      9 ;     0.00   0.00000   0 ;     C6-    C2-   C15-   C17
    19     15     28     30      9 ;     0.00   0.16736   2 ;     C6-    C2-   C15-   C17
    19     15     28     30      9 ;   180.00   1.92464   1 ;     C6-    C2-   C15-   C17
    19     15     28     63      9 ;     0.00   0.65084   3 ;     C6-    C2-   C15-   H15
    20      1     15     19      9 ;     0.00   1.60387   3 ;     C7-     O-    C2-    C6
    20      1     15     28      9 ;     0.00   1.60247   3 ;     C7-     O-    C2-   C15
    20      1     15     28      9 ;   180.00   3.34720   1 ;     C7-     O-    C2-   C15
    20      1     15     50      9 ;     0.00   1.60387   3 ;     C7-     O-    C2-    H2
    20     14     11     21      9 ;     0.00   2.67776   1 ;     C7-    C1-    N1-    C8
    20     14     11     21      9 ;   180.00   1.63176   2 ;     C7-    C1-    N1-    C8
    20     14     11     26      9 ;     0.00   0.00000   0 ;     C7-    C1-    N1-   C13
    20     14     31     32      9 ;     0.00   0.00000   0 ;     C7-    C1-   C18-   C19
    20     14     31     32      9 ;     0.00   0.16736   2 ;     C7-    C1-   C18-   C19
    20     14     31     32      9 ;   180.00   1.92464   1 ;     C7-    C1-   C18-   C19
    20     14     31     33      9 ;     0.00   0.00000   0 ;     C7-    C1-   C18-   C20
    20     14     31     33      9 ;     0.00   0.16736   2 ;     C7-    C1-   C18-   C20
    20     14     31     33      9 ;   180.00   1.92464   1 ;     C7-    C1-   C18-   C20
    20     14     31     70      9 ;     0.00   0.65084   3 ;     C7-    C1-   C18-   H22
    21     11     14     31      9 ;     0.00   9.45584   1 ;     C8-    N1-    C1-   C18
    21     11     14     31      9 ;   180.00   0.12552   3 ;     C8-    N1-    C1-   C18
    21     11     14     31      9 ;   180.00   2.71960   4 ;     C8-    N1-    C1-   C18
    21     11     14     49      9 ;   180.00   0.00000   2 ;     C8-    N1-    C1-    H1
    21     11     26     57      9 ;   180.00   0.00000   2 ;     C8-    N1-   C13-    H9
    21     11     26     58      9 ;   180.00   0.00000   2 ;     C8-    N1-   C13-   H10
    21     11     26     59      9 ;   180.00   0.00000   2 ;     C8-    N1-   C13-   H11
    21     17      3     24      9 ;     0.00   1.60387   3 ;     C8-    C4-    O2-   C11
    21     17     39     40      9 ;     0.00   0.00000   0 ;     C8-    C4-   C26-   C27
    21     17     39     40      9 ;     0.00   0.16736   2 ;     C8-    C4-   C26-   C27
    21     17     39     40      9 ;   180.00   1.92464   1 ;     C8-    C4-   C26-   C27
    21     17     39     41      9 ;     0.00   0.00000   0 ;     C8-    C4-   C26-   C28
    21     17     39     41      9 ;     0.00   0.16736   2 ;     C8-    C4-   C26-   C28
    21     17     39     41      9 ;   180.00   1.92464   1 ;     C8-    C4-   C26-   C28
    21     17     39     88      9 ;     0.00   0.65084   3 ;     C8-    C4-   C26-   H40
    22      2     18     23      9 ;     0.00   1.60387   3 ;     C9-    O1-    C5-   C10
    22      2     18     42      9 ;     0.00   1.60247   3 ;     C9-    O1-    C5-   C29
    22      2     18     42      9 ;   180.00   3.34720   1 ;     C9-    O1-    C5-   C29
    22      2     18     53      9 ;     0.00   1.60387   3 ;     C9-    O1-    C5-    H5
    22     13     10     25      9 ;     0.00   0.00000   0 ;     C9-     C-     N-   C12
    22     13     35     36      9 ;     0.00   0.00000   0 ;     C9-     C-   C22-   C23
    22     13     35     36      9 ;     0.00   0.16736   2 ;     C9-     C-   C22-   C23
    22     13     35     36      9 ;   180.00   1.92464   1 ;     C9-     C-   C22-   C23
    22     13     35     37      9 ;     0.00   0.00000   0 ;     C9-     C-   C22-   C24
    22     13     35     37      9 ;     0.00   0.16736   2 ;     C9-     C-   C22-   C24
    22     13     35     37      9 ;   180.00   1.92464   1 ;     C9-     C-   C22-   C24
    22     13     35     79      9 ;     0.00   0.65084   3 ;     C9-     C-   C22-   H31
    23     12     16     24      9 ;     0.00   2.67776   1 ;    C10-    N2-    C3-   C11
    23     12     16     24      9 ;   180.00   1.63176   2 ;    C10-    N2-    C3-   C11
    23     12     16     45      9 ;     0.00   9.45584   1 ;    C10-    N2-    C3-   C32
    23     12     16     45      9 ;   180.00   0.12552   3 ;    C10-    N2-    C3-   C32
    23     12     16     45      9 ;   180.00   2.71960   4 ;    C10-    N2-    C3-   C32
    23     12     16     51      9 ;   180.00   0.00000   2 ;    C10-    N2-    C3-    H3
    23     12     27     60      9 ;   180.00   0.00000   2 ;    C10-    N2-   C14-   H12
    23     12     27     61      9 ;   180.00   0.00000   2 ;    C10-    N2-   C14-   H13
    23     12     27     62      9 ;   180.00   0.00000   2 ;    C10-    N2-   C14-   H14
    23     18     42     43      9 ;     0.00   0.00000   0 ;    C10-    C5-   C29-   C30
    23     18     42     43      9 ;     0.00   0.16736   2 ;    C10-    C5-   C29-   C30
    23     18     42     43      9 ;   180.00   1.92464   1 ;    C10-    C5-   C29-   C30
    23     18     42     44      9 ;     0.00   0.00000   0 ;    C10-    C5-   C29-   C31
    23     18     42     44      9 ;     0.00   0.16736   2 ;    C10-    C5-   C29-   C31
    23     18     42     44      9 ;   180.00   1.92464   1 ;    C10-    C5-   C29-   C31
    23     18     42     95      9 ;     0.00   0.65084   3 ;    C10-    C5-   C29-   H47
    24      3     17     39      9 ;     0.00   1.60247   3 ;    C11-    O2-    C4-   C26
    24      3     17     39      9 ;   180.00   3.34720   1 ;    C11-    O2-    C4-   C26
    24      3     17     52      9 ;     0.00   1.60387   3 ;    C11-    O2-    C4-    H4
    24     16     12     27      9 ;     0.00   0.00000   0 ;    C11-    C3-    N2-   C14
    24     16     45     46      9 ;     0.00   0.00000   0 ;    C11-    C3-   C32-   C33
    24     16     45     46      9 ;     0.00   0.16736   2 ;    C11-    C3-   C32-   C33
    24     16     45     46      9 ;   180.00   1.92464   1 ;    C11-    C3-   C32-   C33
    24     16     45     47      9 ;     0.00   0.00000   0 ;    C11-    C3-   C32-   C34
    24     16     45     47      9 ;     0.00   0.16736   2 ;    C11-    C3-   C32-   C34
    24     16     45     47      9 ;   180.00   1.92464   1 ;    C11-    C3-   C32-   C34
    24     16     45    102      9 ;     0.00   0.65084   3 ;    C11-    C3-   C32-   H54
    25     10     13     35      9 ;     0.00   0.00000   0 ;    C12-     N-     C-   C22
    25     10     13     48      9 ;     0.00   0.00000   0 ;    C12-     N-     C-     H
    26     11     14     31      9 ;     0.00   0.00000   0 ;    C13-    N1-    C1-   C18
    26     11     14     49      9 ;     0.00   0.00000   0 ;    C13-    N1-    C1-    H1
    27     12     16     45      9 ;     0.00   0.00000   0 ;    C14-    N2-    C3-   C32
    27     12     16     51      9 ;     0.00   0.00000   0 ;    C14-    N2-    C3-    H3
    29     28     15     50      9 ;     0.00   0.65084   3 ;    C16-   C15-    C2-    H2
    29     28     30     67      9 ;     0.00   0.54392   3 ;    C16-   C15-   C17-   H19
    29     28     30     68      9 ;     0.00   0.54392   3 ;    C16-   C15-   C17-   H20
    29     28     30     69      9 ;     0.00   0.54392   3 ;    C16-   C15-   C17-   H21
    30     28     15     50      9 ;     0.00   0.65084   3 ;    C17-   C15-    C2-    H2
    30     28     29     64      9 ;     0.00   0.54392   3 ;    C17-   C15-   C16-   H16
    30     28     29     65      9 ;     0.00   0.54392   3 ;    C17-   C15-   C16-   H17
    30     28     29     66      9 ;     0.00   0.54392   3 ;    C17-   C15-   C16-   H18
    31     33     34     76      9 ;     0.00   0.54392   3 ;    C18-   C20-   C21-   H28
    31     33     34     77      9 ;     0.00   0.54392   3 ;    C18-   C20-   C21-   H29
    31     33     34     78      9 ;     0.00   0.54392   3 ;    C18-   C20-   C21-   H30
    32     31     14     49      9 ;     0.00   0.65084   3 ;    C19-   C18-    C1-    H1
    32     31     33     34      9 ;     0.00   2.17568   3 ;    C19-   C18-   C20-   C21
    32     31     33     74      9 ;     0.00   0.54392   3 ;    C19-   C18-   C20-   H26
    32     31     33     75      9 ;     0.00   0.54392   3 ;    C19-   C18-   C20-   H27
    33     31     14     49      9 ;     0.00   0.65084   3 ;    C20-   C18-    C1-    H1
    33     31     32     71      9 ;     0.00   0.54392   3 ;    C20-   C18-   C19-   H23
    33     31     32     72      9 ;     0.00   0.54392   3 ;    C20-   C18-   C19-   H24
    33     31     32     73      9 ;     0.00   0.54392   3 ;    C20-   C18-   C19-   H25
    34     33     31     70      9 ;     0.00   0.54392   3 ;    C21-   C20-   C18-   H22
    35     37     38     85      9 ;     0.00   0.54392   3 ;    C22-   C24-   C25-   H37
    35     37     38     86      9 ;     0.00   0.54392   3 ;    C22-   C24-   C25-   H38
    35     37     38     87      9 ;     0.00   0.54392   3 ;    C22-   C24-   C25-   H39
    36     35     13     48      9 ;     0.00   0.65084   3 ;    C23-   C22-     C-     H
    36     35     37     38      9 ;     0.00   2.17568   3 ;    C23-   C22-   C24-   C25
    36     35     37     83      9 ;     0.00   0.54392   3 ;    C23-   C22-   C24-   H35
    36     35     37     84      9 ;     0.00   0.54392   3 ;    C23-   C22-   C24-   H36
    37     35     13     48      9 ;     0.00   0.65084   3 ;    C24-   C22-     C-     H
    37     35     36     80      9 ;     0.00   0.54392   3 ;    C24-   C22-   C23-   H32
    37     35     36     81      9 ;     0.00   0.54392   3 ;    C24-   C22-   C23-   H33
    37     35     36     82      9 ;     0.00   0.54392   3 ;    C24-   C22-   C23-   H34
    38     37     35     79      9 ;     0.00   0.54392   3 ;    C25-   C24-   C22-   H31
    40     39     17     52      9 ;     0.00   0.65084   3 ;    C27-   C26-    C4-    H4
    40     39     41     92      9 ;     0.00   0.54392   3 ;    C27-   C26-   C28-   H44
    40     39     41     93      9 ;     0.00   0.54392   3 ;    C27-   C26-   C28-   H45
    40     39     41     94      9 ;     0.00   0.54392   3 ;    C27-   C26-   C28-   H46
    41     39     17     52      9 ;     0.00   0.65084   3 ;    C28-   C26-    C4-    H4
    41     39     40     89      9 ;     0.00   0.54392   3 ;    C28-   C26-   C27-   H41
    41     39     40     90      9 ;     0.00   0.54392   3 ;    C28-   C26-   C27-   H42
    41     39     40     91      9 ;     0.00   0.54392   3 ;    C28-   C26-   C27-   H43
    43     42     18     53      9 ;     0.00   0.65084   3 ;    C30-   C29-    C5-    H5
    43     42     44     99      9 ;     0.00   0.54392   3 ;    C30-   C29-   C31-   H51
    43     42     44    100      9 ;     0.00   0.54392   3 ;    C30-   C29-   C31-   H52
    43     42     44    101      9 ;     0.00   0.54392   3 ;    C30-   C29-   C31-   H53
    44     42     18     53      9 ;     0.00   0.65084   3 ;    C31-   C29-    C5-    H5
    44     42     43     96      9 ;     0.00   0.54392   3 ;    C31-   C29-   C30-   H48
    44     42     43     97      9 ;     0.00   0.54392   3 ;    C31-   C29-   C30-   H49
    44     42     43     98      9 ;     0.00   0.54392   3 ;    C31-   C29-   C30-   H50
    46     45     16     51      9 ;     0.00   0.65084   3 ;    C33-   C32-    C3-    H3
    46     45     47    106      9 ;     0.00   0.54392   3 ;    C33-   C32-   C34-   H58
    46     45     47    107      9 ;     0.00   0.54392   3 ;    C33-   C32-   C34-   H59
    46     45     47    108      9 ;     0.00   0.54392   3 ;    C33-   C32-   C34-   H60
    47     45     16     51      9 ;     0.00   0.65084   3 ;    C34-   C32-    C3-    H3
    47     45     46    103      9 ;     0.00   0.54392   3 ;    C34-   C32-   C33-   H55
    47     45     46    104      9 ;     0.00   0.54392   3 ;    C34-   C32-   C33-   H56
    47     45     46    105      9 ;     0.00   0.54392   3 ;    C34-   C32-   C33-   H57
    48     13     35     79      9 ;     0.00   0.65084   3 ;      H-     C-   C22-   H31
    49     14     31     70      9 ;     0.00   0.65084   3 ;     H1-    C1-   C18-   H22
    50     15     28     63      9 ;     0.00   0.65084   3 ;     H2-    C2-   C15-   H15
    51     16     45    102      9 ;     0.00   0.65084   3 ;     H3-    C3-   C32-   H54
    52     17     39     88      9 ;     0.00   0.65084   3 ;     H4-    C4-   C26-   H40
    53     18     42     95      9 ;     0.00   0.65084   3 ;     H5-    C5-   C29-   H47
    63     28     29     64      9 ;     0.00   0.50208   3 ;    H15-   C15-   C16-   H16
    63     28     29     65      9 ;     0.00   0.50208   3 ;    H15-   C15-   C16-   H17
    63     28     29     66      9 ;     0.00   0.50208   3 ;    H15-   C15-   C16-   H18
    63     28     30     67      9 ;     0.00   0.50208   3 ;    H15-   C15-   C17-   H19
    63     28     30     68      9 ;     0.00   0.50208   3 ;    H15-   C15-   C17-   H20
    63     28     30     69      9 ;     0.00   0.50208   3 ;    H15-   C15-   C17-   H21
    70     31     32     71      9 ;     0.00   0.50208   3 ;    H22-   C18-   C19-   H23
    70     31     32     72      9 ;     0.00   0.50208   3 ;    H22-   C18-   C19-   H24
    70     31     32     73      9 ;     0.00   0.50208   3 ;    H22-   C18-   C19-   H25
    70     31     33     74      9 ;     0.00   0.50208   3 ;    H22-   C18-   C20-   H26
    70     31     33     75      9 ;     0.00   0.50208   3 ;    H22-   C18-   C20-   H27
    74     33     34     76      9 ;     0.00   0.50208   3 ;    H26-   C20-   C21-   H28
    74     33     34     77      9 ;     0.00   0.50208   3 ;    H26-   C20-   C21-   H29
    74     33     34     78      9 ;     0.00   0.50208   3 ;    H26-   C20-   C21-   H30
    75     33     34     76      9 ;     0.00   0.50208   3 ;    H27-   C20-   C21-   H28
    75     33     34     77      9 ;     0.00   0.50208   3 ;    H27-   C20-   C21-   H29
    75     33     34     78      9 ;     0.00   0.50208   3 ;    H27-   C20-   C21-   H30
    79     35     36     80      9 ;     0.00   0.50208   3 ;    H31-   C22-   C23-   H32
    79     35     36     81      9 ;     0.00   0.50208   3 ;    H31-   C22-   C23-   H33
    79     35     36     82      9 ;     0.00   0.50208   3 ;    H31-   C22-   C23-   H34
    79     35     37     83      9 ;     0.00   0.50208   3 ;    H31-   C22-   C24-   H35
    79     35     37     84      9 ;     0.00   0.50208   3 ;    H31-   C22-   C24-   H36
    83     37     38     85      9 ;     0.00   0.50208   3 ;    H35-   C24-   C25-   H37
    83     37     38     86      9 ;     0.00   0.50208   3 ;    H35-   C24-   C25-   H38
    83     37     38     87      9 ;     0.00   0.50208   3 ;    H35-   C24-   C25-   H39
    84     37     38     85      9 ;     0.00   0.50208   3 ;    H36-   C24-   C25-   H37
    84     37     38     86      9 ;     0.00   0.50208   3 ;    H36-   C24-   C25-   H38
    84     37     38     87      9 ;     0.00   0.50208   3 ;    H36-   C24-   C25-   H39
    88     39     40     89      9 ;     0.00   0.50208   3 ;    H40-   C26-   C27-   H41
    88     39     40     90      9 ;     0.00   0.50208   3 ;    H40-   C26-   C27-   H42
    88     39     40     91      9 ;     0.00   0.50208   3 ;    H40-   C26-   C27-   H43
    88     39     41     92      9 ;     0.00   0.50208   3 ;    H40-   C26-   C28-   H44
    88     39     41     93      9 ;     0.00   0.50208   3 ;    H40-   C26-   C28-   H45
    88     39     41     94      9 ;     0.00   0.50208   3 ;    H40-   C26-   C28-   H46
    95     42     43     96      9 ;     0.00   0.50208   3 ;    H47-   C29-   C30-   H48
    95     42     43     97      9 ;     0.00   0.50208   3 ;    H47-   C29-   C30-   H49
    95     42     43     98      9 ;     0.00   0.50208   3 ;    H47-   C29-   C30-   H50
    95     42     44     99      9 ;     0.00   0.50208   3 ;    H47-   C29-   C31-   H51
    95     42     44    100      9 ;     0.00   0.50208   3 ;    H47-   C29-   C31-   H52
    95     42     44    101      9 ;     0.00   0.50208   3 ;    H47-   C29-   C31-   H53
   102     45     46    103      9 ;     0.00   0.50208   3 ;    H54-   C32-   C33-   H55
   102     45     46    104      9 ;     0.00   0.50208   3 ;    H54-   C32-   C33-   H56
   102     45     46    105      9 ;     0.00   0.50208   3 ;    H54-   C32-   C33-   H57
   102     45     47    106      9 ;     0.00   0.50208   3 ;    H54-   C32-   C34-   H58
   102     45     47    107      9 ;     0.00   0.50208   3 ;    H54-   C32-   C34-   H59
   102     45     47    108      9 ;     0.00   0.50208   3 ;    H54-   C32-   C34-   H60

[ dihedrals ] ; impropers
; treated as propers in GROMACS to use correct AMBER analytical function
;    i      j      k      l   func   phase     kd      pn
     1     20      5     14      4 ;   180.00   4.60240   2 ;      O-    C7-    O4-    C1
    13      7     22      2      4 ;   180.00   4.60240   2 ;      C-    O6-    C9-    O1
    15     10     19      4      4 ;   180.00  43.93200   2 ;     C2-     N-    C6-    O3
    16      9     24      3      4 ;   180.00   4.60240   2 ;     C3-    O8-   C11-    O2
    17     11     21      6      4 ;   180.00  43.93200   2 ;     C4-    N1-    C8-    O5
    18     12     23      8      4 ;   180.00  43.93200   2 ;     C5-    N2-   C10-    O7
    19     13     10     25      4 ;   180.00   4.60240   2 ;     C6-     C-     N-   C12
    21     14     11     26      4 ;   180.00   4.60240   2 ;     C8-    C1-    N1-   C13
    23     16     12     27      4 ;   180.00   4.60240   2 ;    C10-    C3-    N2-   C14
