h2ea1_GMX.gro created by acpype (v: 2023.10.27) on Thu Sep  4 07:59:45 2025
 108
    1  UNL    O    1   0.684  -0.137  -2.489
    1  UNL   O1    2   0.850   0.262  -2.270
    1  UNL   O2    3   1.144  -0.014  -2.313
    1  UNL   O3    4   0.831   0.078  -2.529
    1  UNL   O4    5   0.707  -0.134  -2.259
    1  UNL   O5    6   1.036  -0.177  -2.483
    1  UNL   O6    7   0.868   0.488  -2.307
    1  UNL   O7    8   1.026   0.451  -2.041
    1  UNL   O8    9   1.226   0.062  -2.111
    1  UNL    N   10   0.670   0.232  -2.462
    1  UNL   N1   11   0.933  -0.293  -2.310
    1  UNL   N2   12   1.153   0.320  -2.184
    1  UNL    C   13   0.764   0.345  -2.475
    1  UNL   C1   14   0.810  -0.311  -2.391
    1  UNL   C2   15   0.613  -0.012  -2.487
    1  UNL   C3   16   1.164   0.217  -2.289
    1  UNL   C4   17   1.134  -0.151  -2.267
    1  UNL   C5   18   0.911   0.264  -2.140
    1  UNL   C6   19   0.714   0.103  -2.494
    1  UNL   C7   20   0.728  -0.185  -2.369
    1  UNL   C8   21   1.032  -0.210  -2.364
    1  UNL   C9   22   0.830   0.376  -2.340
    1  UNL  C10   23   1.034   0.355  -2.118
    1  UNL  C11   24   1.184   0.081  -2.224
    1  UNL  C12   25   0.537   0.263  -2.408
    1  UNL  C13   26   0.938  -0.349  -2.175
    1  UNL  C14   27   1.275   0.392  -2.146
    1  UNL  C15   28   0.523  -0.010  -2.610
    1  UNL  C16   29   0.606   0.009  -2.737
    1  UNL  C17   30   0.441  -0.138  -2.619
    1  UNL  C18   31   0.726  -0.434  -2.359
    1  UNL  C19   32   0.581  -0.409  -2.402
    1  UNL  C20   33   0.779  -0.561  -2.428
    1  UNL  C21   34   0.726  -0.690  -2.366
    1  UNL  C22   35   0.701   0.470  -2.536
    1  UNL  C23   36   0.659   0.567  -2.425
    1  UNL  C24   37   0.795   0.541  -2.635
    1  UNL  C25   38   0.889   0.446  -2.708
    1  UNL  C26   39   1.268  -0.221  -2.280
    1  UNL  C27   40   1.327  -0.198  -2.419
    1  UNL  C28   41   1.253  -0.371  -2.252
    1  UNL  C29   42   0.800   0.295  -2.039
    1  UNL  C30   43   0.666   0.237  -2.086
    1  UNL  C31   44   0.837   0.240  -1.901
    1  UNL  C32   45   1.274   0.242  -2.393
    1  UNL  C33   46   1.218   0.233  -2.534
    1  UNL  C34   47   1.389   0.143  -2.374
    1  UNL    H   48   0.840   0.315  -2.543
    1  UNL   H1   49   0.840  -0.328  -2.492
    1  UNL   H2   50   0.554  -0.001  -2.398
    1  UNL   H3   51   1.073   0.222  -2.345
    1  UNL   H4   52   1.106  -0.160  -2.164
    1  UNL   H5   53   0.954   0.167  -2.127
    1  UNL   H6   54   0.479   0.173  -2.403
    1  UNL   H7   55   0.489   0.334  -2.471
    1  UNL   H8   56   0.547   0.304  -2.309
    1  UNL   H9   57   0.851  -0.409  -2.158
    1  UNL  H10   58   0.941  -0.270  -2.103
    1  UNL  H11   59   1.025  -0.410  -2.165
    1  UNL  H12   60   1.357   0.355  -2.204
    1  UNL  H13   61   1.295   0.375  -2.042
    1  UNL  H14   62   1.262   0.496  -2.164
    1  UNL  H15   63   0.456   0.073  -2.602
    1  UNL  H16   64   0.674  -0.073  -2.748
    1  UNL  H17   65   0.661   0.100  -2.731
    1  UNL  H18   66   0.541   0.012  -2.822
    1  UNL  H19   67   0.506  -0.223  -2.628
    1  UNL  H20   68   0.377  -0.134  -2.704
    1  UNL  H21   69   0.381  -0.149  -2.530
    1  UNL  H22   70   0.731  -0.450  -2.254
    1  UNL  H23   71   0.577  -0.393  -2.508
    1  UNL  H24   72   0.543  -0.322  -2.352
    1  UNL  H25   73   0.521  -0.494  -2.377
    1  UNL  H26   74   0.886  -0.561  -2.420
    1  UNL  H27   75   0.746  -0.558  -2.529
    1  UNL  H28   76   0.757  -0.696  -2.264
    1  UNL  H29   77   0.765  -0.773  -2.421
    1  UNL  H30   78   0.619  -0.690  -2.372
    1  UNL  H31   79   0.615   0.438  -2.591
    1  UNL  H32   80   0.746   0.598  -2.371
    1  UNL  H33   81   0.591   0.519  -2.359
    1  UNL  H34   82   0.612   0.653  -2.469
    1  UNL  H35   83   0.854   0.612  -2.581
    1  UNL  H36   84   0.734   0.588  -2.709
    1  UNL  H37   85   0.953   0.398  -2.637
    1  UNL  H38   86   0.949   0.502  -2.777
    1  UNL  H39   87   0.832   0.373  -2.761
    1  UNL  H40   88   1.335  -0.180  -2.207
    1  UNL  H41   89   1.262  -0.239  -2.493
    1  UNL  H42   90   1.422  -0.246  -2.425
    1  UNL  H43   91   1.339  -0.093  -2.435
    1  UNL  H44   92   1.186  -0.414  -2.324
    1  UNL  H45   93   1.214  -0.385  -2.154
    1  UNL  H46   94   1.349  -0.418  -2.260
    1  UNL  H47   95   0.790   0.401  -2.031
    1  UNL  H48   96   0.674   0.131  -2.094
    1  UNL  H49   97   0.641   0.279  -2.181
    1  UNL  H50   98   0.590   0.262  -2.015
    1  UNL  H51   99   0.847   0.133  -1.907
    1  UNL  H52  100   0.759   0.264  -1.831
    1  UNL  H53  101   0.929   0.283  -1.869
    1  UNL  H54  102   1.312   0.341  -2.377
    1  UNL  H55  103   1.179   0.135  -2.551
    1  UNL  H56  104   1.296   0.253  -2.605
    1  UNL  H57  105   1.139   0.305  -2.546
    1  UNL  H58  106   1.353   0.043  -2.389
    1  UNL  H59  107   1.429   0.152  -2.275
    1  UNL  H60  108   1.466   0.164  -2.445
   21.78600    28.52400    19.82200
