h2eb_GMX.gro created by acpype (v: 2023.10.27) on Thu Sep  4 07:59:47 2025
 102
    1  UNL    O    1   0.588   0.651  -2.424
    1  UNL   O1    2   1.096   0.647  -2.525
    1  UNL   O2    3   0.902   1.068  -2.432
    1  UNL   O3    4   0.814   0.668  -2.298
    1  UNL   O4    5   0.688   0.928  -2.242
    1  UNL   O5    6   1.277   0.915  -2.500
    1  UNL   O6    7   0.665   0.760  -2.612
    1  UNL   O7    8   1.237   0.666  -2.344
    1  UNL   O8    9   0.968   1.284  -2.475
    1  UNL    N   10   0.921   0.492  -2.404
    1  UNL   N1   11   0.612   0.989  -2.453
    1  UNL   N2   12   1.074   0.957  -2.606
    1  UNL    C   13   1.045   0.520  -2.328
    1  UNL   C1   14   0.519   0.874  -2.455
    1  UNL   C2   15   1.085   1.103  -2.585
    1  UNL   C3   16   0.677   0.539  -2.446
    1  UNL   C4   17   1.176   0.729  -2.613
    1  UNL   C5   18   0.800   1.114  -2.342
    1  UNL   C6   19   0.810   0.573  -2.377
    1  UNL   C7   20   0.696   1.002  -2.340
    1  UNL   C8   21   1.181   0.875  -2.567
    1  UNL   C9   22   0.599   0.757  -2.509
    1  UNL  C10   23   1.136   0.620  -2.398
    1  UNL  C11   24   0.979   1.163  -2.493
    1  UNL  C12   25   0.925   0.386  -2.504
    1  UNL  C13   26   0.614   1.078  -2.569
    1  UNL  C14   27   0.960   0.908  -2.683
    1  UNL  C15   28   0.612   0.417  -2.383
    1  UNL  C16   29   0.475   0.453  -2.325
    1  UNL  C17   30   0.599   0.304  -2.485
    1  UNL  C18   31   0.392   0.893  -2.536
    1  UNL  C19   32   0.408   0.835  -2.677
    1  UNL  C20   33   0.272   0.830  -2.466
    1  UNL  C21   34   1.125   0.394  -2.292
    1  UNL  C22   35   1.163   0.395  -2.144
    1  UNL  C23   36   1.249   0.382  -2.380
    1  UNL  C24   37   0.862   1.136  -2.204
    1  UNL  C25   38   0.995   1.063  -2.193
    1  UNL  C26   39   0.879   1.285  -2.176
    1  UNL  C27   40   1.315   0.669  -2.635
    1  UNL  C28   41   1.400   0.762  -2.721
    1  UNL  C29   42   1.304   0.531  -2.700
    1  UNL  C30   43   1.088   1.178  -2.719
    1  UNL  C31   44   0.960   1.260  -2.738
    1  UNL  C32   45   1.211   1.269  -2.726
    1  UNL    H   46   1.011   0.563  -2.236
    1  UNL   H1   47   0.482   0.859  -2.355
    1  UNL   H2   48   1.178   1.116  -2.534
    1  UNL   H3   49   0.696   0.520  -2.550
    1  UNL   H4   50   1.127   0.729  -2.708
    1  UNL   H5   51   0.755   1.207  -2.372
    1  UNL   H6   52   0.829   0.377  -2.550
    1  UNL   H7   53   0.950   0.293  -2.457
    1  UNL   H8   54   0.998   0.409  -2.578
    1  UNL   H9   55   0.541   1.045  -2.640
    1  UNL  H10   56   0.711   1.076  -2.614
    1  UNL  H11   57   0.592   1.177  -2.538
    1  UNL  H12   58   0.891   0.989  -2.702
    1  UNL  H13   59   0.910   0.831  -2.629
    1  UNL  H14   60   0.994   0.869  -2.777
    1  UNL  H15   61   0.675   0.384  -2.303
    1  UNL  H16   62   0.411   0.487  -2.404
    1  UNL  H17   63   0.487   0.531  -2.253
    1  UNL  H18   64   0.433   0.367  -2.279
    1  UNL  H19   65   0.537   0.335  -2.566
    1  UNL  H20   66   0.556   0.218  -2.437
    1  UNL  H21   67   0.696   0.279  -2.522
    1  UNL  H22   68   0.373   0.998  -2.545
    1  UNL  H23   69   0.427   0.730  -2.670
    1  UNL  H24   70   0.491   0.883  -2.725
    1  UNL  H25   71   0.319   0.852  -2.733
    1  UNL  H26   72   0.289   0.724  -2.456
    1  UNL  H27   73   0.184   0.846  -2.523
    1  UNL  H28   74   0.261   0.873  -2.369
    1  UNL  H29   75   1.062   0.309  -2.310
    1  UNL  H30   76   1.226   0.480  -2.124
    1  UNL  H31   77   1.216   0.306  -2.121
    1  UNL  H32   78   1.075   0.401  -2.084
    1  UNL  H33   79   1.313   0.467  -2.363
    1  UNL  H34   80   1.220   0.379  -2.483
    1  UNL  H35   81   1.302   0.293  -2.355
    1  UNL  H36   82   0.795   1.096  -2.131
    1  UNL  H37   83   1.064   1.102  -2.266
    1  UNL  H38   84   0.981   0.959  -2.211
    1  UNL  H39   85   1.036   1.077  -2.095
    1  UNL  H40   86   0.946   1.327  -2.249
    1  UNL  H41   87   0.920   1.298  -2.078
    1  UNL  H42   88   0.784   1.334  -2.182
    1  UNL  H43   89   1.362   0.658  -2.540
    1  UNL  H44   90   1.354   0.774  -2.817
    1  UNL  H45   91   1.498   0.720  -2.733
    1  UNL  H46   92   1.408   0.857  -2.673
    1  UNL  H47   93   1.257   0.540  -2.796
    1  UNL  H48   94   1.246   0.466  -2.637
    1  UNL  H49   95   1.402   0.490  -2.712
    1  UNL  H50   96   1.095   1.107  -2.798
    1  UNL  H51   97   0.952   1.332  -2.659
    1  UNL  H52   98   0.876   1.194  -2.735
    1  UNL  H53   99   0.963   1.310  -2.832
    1  UNL  H54  100   1.206   1.341  -2.647
    1  UNL  H55  101   1.213   1.319  -2.820
    1  UNL  H56  102   1.299   1.210  -2.715
   26.27800    22.45800    15.07400
