h1ea1_GMX.gro created by acpype (v: 2023.10.27) on Thu Sep  4 04:35:37 2025
 108
    1  UNL    O    1   0.928  -0.154  -0.064
    1  UNL   O1    2   1.220  -0.538  -0.025
    1  UNL   O2    3   1.246  -0.301   0.304
    1  UNL   O3    4   0.953  -0.387   0.057
    1  UNL   O4    5   1.152  -0.131  -0.110
    1  UNL   O5    6   1.037  -0.150   0.273
    1  UNL   O6    7   1.210  -0.768  -0.028
    1  UNL   O7    8   1.508  -0.714   0.048
    1  UNL   O8    9   1.468  -0.360   0.312
    1  UNL    N   10   0.981  -0.513  -0.135
    1  UNL   N1   11   1.159  -0.004   0.140
    1  UNL   N2   12   1.399  -0.616   0.229
    1  UNL    C   13   1.007  -0.637  -0.058
    1  UNL   C1   14   1.044   0.017   0.051
    1  UNL   C2   15   0.918  -0.270  -0.149
    1  UNL   C3   16   1.294  -0.529   0.284
    1  UNL   C4   17   1.274  -0.160   0.299
    1  UNL   C5   18   1.362  -0.530  -0.006
    1  UNL   C6   19   0.952  -0.394  -0.066
    1  UNL   C7   20   1.051  -0.097  -0.051
    1  UNL   C8   21   1.146  -0.103   0.239
    1  UNL   C9   22   1.157  -0.658  -0.040
    1  UNL  C10   23   1.428  -0.630   0.092
    1  UNL  C11   24   1.350  -0.389   0.302
    1  UNL  C12   25   0.994  -0.523  -0.281
    1  UNL  C13   26   1.284   0.068   0.113
    1  UNL  C14   27   1.479  -0.695   0.323
    1  UNL  C15   28   0.774  -0.278  -0.198
    1  UNL  C16   29   0.695  -0.381  -0.118
    1  UNL  C17   30   0.707  -0.141  -0.190
    1  UNL  C18   31   1.038   0.150  -0.022
    1  UNL  C19   32   0.941   0.140  -0.141
    1  UNL  C20   33   0.994   0.265   0.071
    1  UNL  C21   34   0.877   0.346   0.016
    1  UNL  C22   35   0.940  -0.761  -0.117
    1  UNL  C23   36   0.789  -0.738  -0.127
    1  UNL  C24   37   0.997  -0.798  -0.255
    1  UNL  C25   38   1.058  -0.938  -0.260
    1  UNL  C26   39   1.296  -0.106   0.439
    1  UNL  C27   40   1.183  -0.012   0.479
    1  UNL  C28   41   1.431  -0.034   0.448
    1  UNL  C29   42   1.427  -0.537  -0.144
    1  UNL  C30   43   1.324  -0.571  -0.251
    1  UNL  C31   44   1.496  -0.404  -0.178
    1  UNL  C32   45   1.232  -0.577   0.415
    1  UNL  C33   46   1.079  -0.583   0.404
    1  UNL  C34   47   1.273  -0.487   0.531
    1  UNL    H   48   0.963  -0.623   0.038
    1  UNL   H1   49   0.956   0.018   0.111
    1  UNL   H2   50   0.986  -0.264  -0.232
    1  UNL   H3   51   1.214  -0.530   0.213
    1  UNL   H4   52   1.362  -0.135   0.243
    1  UNL   H5   53   1.379  -0.438   0.044
    1  UNL   H6   54   0.973  -0.429  -0.326
    1  UNL   H7   55   0.925  -0.596  -0.318
    1  UNL   H8   56   1.094  -0.553  -0.306
    1  UNL   H9   57   1.269   0.138   0.034
    1  UNL  H10   58   1.360  -0.002   0.085
    1  UNL  H11   59   1.315   0.120   0.201
    1  UNL  H12   60   1.551  -0.753   0.270
    1  UNL  H13   61   1.415  -0.760   0.379
    1  UNL  H14   62   1.529  -0.629   0.391
    1  UNL  H15   63   0.775  -0.308  -0.300
    1  UNL  H16   64   0.693  -0.351  -0.015
    1  UNL  H17   65   0.742  -0.476  -0.127
    1  UNL  H18   66   0.595  -0.386  -0.155
    1  UNL  H19   67   0.705  -0.108  -0.088
    1  UNL  H20   68   0.607  -0.148  -0.227
    1  UNL  H21   69   0.762  -0.070  -0.249
    1  UNL  H22   70   1.136   0.173  -0.057
    1  UNL  H23   71   0.843   0.118  -0.105
    1  UNL  H24   72   0.974   0.062  -0.207
    1  UNL  H25   73   0.940   0.233  -0.193
    1  UNL  H26   74   1.077   0.331   0.085
    1  UNL  H27   75   0.962   0.221   0.163
    1  UNL  H28   76   0.905   0.393  -0.076
    1  UNL  H29   77   0.850   0.422   0.087
    1  UNL  H30   78   0.793   0.282  -0.000
    1  UNL  H31   79   0.961  -0.842  -0.051
    1  UNL  H32   80   0.770  -0.656  -0.194
    1  UNL  H33   81   0.750  -0.715  -0.031
    1  UNL  H34   82   0.742  -0.827  -0.165
    1  UNL  H35   83   1.073  -0.727  -0.280
    1  UNL  H36   84   0.915  -0.797  -0.324
    1  UNL  H37   85   1.140  -0.943  -0.192
    1  UNL  H38   86   1.092  -0.958  -0.359
    1  UNL  H39   87   0.984  -1.010  -0.232
    1  UNL  H40   88   1.298  -0.188   0.507
    1  UNL  H41   89   1.180   0.071   0.412
    1  UNL  H42   90   1.199   0.023   0.579
    1  UNL  H43   91   1.090  -0.065   0.475
    1  UNL  H44   92   1.431   0.049   0.381
    1  UNL  H45   93   1.510  -0.101   0.422
    1  UNL  H46   94   1.446   0.001   0.548
    1  UNL  H47   95   1.501  -0.614  -0.143
    1  UNL  H48   96   1.248  -0.495  -0.254
    1  UNL  H49   97   1.278  -0.665  -0.228
    1  UNL  H50   98   1.372  -0.578  -0.347
    1  UNL  H51   99   1.424  -0.326  -0.179
    1  UNL  H52  100   1.543  -0.412  -0.273
    1  UNL  H53  101   1.570  -0.383  -0.103
    1  UNL  H54  102   1.268  -0.676   0.434
    1  UNL  H55  103   1.041  -0.485   0.384
    1  UNL  H56  104   1.038  -0.620   0.495
    1  UNL  H57  105   1.052  -0.648   0.323
    1  UNL  H58  106   1.238  -0.388   0.513
    1  UNL  H59  107   1.380  -0.487   0.539
    1  UNL  H60  108   1.231  -0.525   0.622
   19.49400    28.63400    19.62000
