Results/Site1/HOLO/ENA1/ENA1-Si
   108
   9.2750000  -1.5400000  -0.6380000  12.2040000  -5.3760000  -0.2470000
  12.4550000  -3.0100000   3.0360000   9.5260000  -3.8670000   0.5710000
  11.5240000  -1.3090000  -1.0990000  10.3700000  -1.5010000   2.7260000
  12.1010000  -7.6750000  -0.2800000  15.0750000  -7.1400000   0.4830000
  14.6830000  -3.6000000   3.1190000   9.8080000  -5.1310000  -1.3530000
  11.5940000  -0.0390000   1.4030000  13.9920000  -6.1640000   2.2860000
  10.0720000  -6.3660000  -0.5780000  10.4410000   0.1680000   0.5060000
   9.1810000  -2.6980000  -1.4900000  12.9380000  -5.2890000   2.8400000
  12.7420000  -1.5960000   2.9880000  13.6210000  -5.3030000  -0.0610000
   9.5230000  -3.9430000  -0.6630000  10.5090000  -0.9660000  -0.5080000
  11.4620000  -1.0280000   2.3890000  11.5750000  -6.5750000  -0.3950000
  14.2830000  -6.2980000   0.9190000  13.5000000  -3.8880000   3.0180000
   9.9390000  -5.2340000  -2.8110000  12.8420000   0.6790000   1.1330000
  14.7880000  -6.9470000   3.2320000   7.7410000  -2.7750000  -1.9800000
   6.9510000  -3.8060000  -1.1770000   7.0700000  -1.4050000  -1.8980000
  10.3750000   1.5040000  -0.2200000   9.4130000   1.4010000  -1.4060000
   9.9400000   2.6530000   0.7070000   8.7710000   3.4640000   0.1640000
   9.4020000  -7.6070000  -1.1670000   7.8920000  -7.3800000  -1.2740000
   9.9700000  -7.9820000  -2.5470000  10.5760000  -9.3780000  -2.5970000
  12.9650000  -1.0570000   4.3900000  11.8270000  -0.1230000   4.7930000
  14.3090000  -0.3370000   4.4810000  14.2710000  -5.3650000  -1.4440000
  13.2350000  -5.7110000  -2.5130000  14.9610000  -4.0440000  -1.7760000
  12.3160000  -5.7740000   4.1490000  10.7930000  -5.8300000   4.0350000
  12.7320000  -4.8740000   5.3110000   9.6250000  -6.2260000   0.3840000
   9.5580000   0.1760000   1.1100000   9.8550000  -2.6380000  -2.3190000
  12.1370000  -5.3030000   2.1310000  13.6220000  -1.3480000   2.4320000
  13.7940000  -4.3750000   0.4440000   9.7250000  -4.2850000  -3.2560000
   9.2500000  -5.9640000  -3.1800000  10.9370000  -5.5280000  -3.0590000
  12.6860000   1.3790000   0.3390000  13.6010000  -0.0200000   0.8490000
  13.1500000   1.2020000   2.0140000  15.5070000  -7.5300000   2.6960000
  14.1450000  -7.5970000   3.7870000  15.2940000  -6.2860000   3.9050000
   7.7540000  -3.0840000  -3.0040000   6.9270000  -3.5140000  -0.1480000
   7.4210000  -4.7630000  -1.2650000   5.9520000  -3.8630000  -1.5550000
   7.0480000  -1.0790000  -0.8790000   6.0700000  -1.4750000  -2.2720000
   7.6220000  -0.7020000  -2.4860000  11.3620000   1.7300000  -0.5660000
   8.4300000   1.1750000  -1.0490000   9.7410000   0.6240000  -2.0650000
   9.3960000   2.3320000  -1.9330000  10.7730000   3.3100000   0.8450000
   9.6150000   2.2100000   1.6250000   9.0550000   3.9260000  -0.7580000
   8.5010000   4.2190000   0.8730000   7.9350000   2.8170000  -0.0040000
   9.6060000  -8.4230000  -0.5050000   7.7000000  -6.5630000  -1.9380000
   7.4960000  -7.1540000  -0.3060000   7.4240000  -8.2650000  -1.6530000
  10.7300000  -7.2740000  -2.8040000   9.1520000  -7.9700000  -3.2370000
  11.4010000  -9.4330000  -1.9180000  10.9170000  -9.5830000  -3.5900000
   9.8360000 -10.0980000  -2.3180000  12.9790000  -1.8830000   5.0700000
  11.7960000   0.7110000   4.1230000  11.9890000   0.2270000   5.7910000
  10.8980000  -0.6520000   4.7470000  14.3150000   0.4940000   3.8070000
  15.0950000  -1.0140000   4.2190000  14.4590000   0.0140000   5.4810000
  15.0110000  -6.1380000  -1.4300000  12.4850000  -4.9490000  -2.5430000
  12.7800000  -6.6500000  -2.2780000  13.7150000  -5.7760000  -3.4670000
  14.2360000  -3.2580000  -1.7950000  15.4320000  -4.1180000  -2.7340000
  15.6990000  -3.8300000  -1.0320000  12.6770000  -6.7630000   4.3430000
  10.4140000  -4.8480000   3.8410000  10.3800000  -6.1970000   4.9510000
  10.5190000  -6.4830000   3.2330000  12.3800000  -3.8790000   5.1350000
  13.7990000  -4.8660000   5.3910000  12.3090000  -5.2470000   6.2200000
