title = NPT equil
define = -DPOSRES
integrator = md
dt = 0.002
nsteps = 250000
nstxout-compressed = 1000
nstenergy = 1000
nstlog = 1000
continuation = yes
constraint_algorithm = lincs
constraints = h-bonds
cutoff-scheme = Verlet
coulombtype = PME
rcoulomb = 1.0
rvdw = 1.0
tcoupl = V-rescale
tc-grps = System
tau-t = 0.1
ref-t = 300
pcoupl = c-rescale
pcoupltype = isotropic
tau-p = 2.0
ref-p = 1.0
compressibility = 4.5e-5
pbc = xyz
refcoord_scaling = com 
