WAR-Site1_1h.pdb
    39
   3.5940000 -11.1780000   9.8670000   5.5710000 -11.1510000   7.9480000
   4.4010000 -10.4180000   7.7010000   3.3980000 -10.4100000   8.6290000
   2.6100000 -11.2160000  10.8560000   2.8260000 -11.9460000  12.0040000
   4.0130000 -12.6420000  12.1790000   4.9930000 -12.6130000  11.2090000
   4.7950000 -11.8830000  10.0440000   5.7430000 -11.8460000   9.0840000
   6.4590000 -11.1490000   7.1140000   2.2560000  -9.7150000   8.4150000
   2.2390000  -9.0000000   9.0640000   4.2490000  -9.6460000   6.4160000
   3.2930000  -8.4720000   6.6360000   4.0400000  -7.1750000   6.4580000
   4.0860000  -6.1720000   7.5820000   4.6010000  -6.9400000   5.4160000
   3.6950000 -10.5520000   5.3490000   2.3300000 -10.6140000   5.1340000
   1.8210000 -11.4450000   4.1540000   2.6750000 -12.2140000   3.3880000
   4.0390000 -12.1520000   3.6020000   4.5490000 -11.3170000   4.5780000
   1.7250000 -10.7000000  10.7280000   2.1010000 -11.9750000  12.7380000
   4.1640000 -13.1860000  13.0430000   5.8730000 -13.1330000  11.3490000
   5.2040000  -9.2750000   6.1080000   2.8920000  -8.5190000   7.6270000
   2.4950000  -8.5240000   5.9250000   3.5370000  -6.5490000   8.4200000
   3.6500000  -5.2510000   7.2560000   5.1030000  -6.0040000   7.8680000
   1.6910000 -10.0390000   5.7060000   0.8020000 -11.4910000   3.9950000
   2.2950000 -12.8350000   2.6560000   4.6770000 -12.7300000   3.0330000
   5.5680000 -11.2650000   4.7310000
