h1rwf_GMX.gro created by acpype (v: 2023.10.27) on Thu Sep  4 07:59:29 2025
 39
    1  UNL    C    1   0.359  -1.118   0.987
    1  UNL   C1    2   0.557  -1.115   0.795
    1  UNL   C2    3   0.440  -1.042   0.770
    1  UNL   C3    4   0.340  -1.041   0.863
    1  UNL   C4    5   0.261  -1.122   1.086
    1  UNL   C5    6   0.283  -1.195   1.200
    1  UNL   C6    7   0.401  -1.264   1.218
    1  UNL   C7    8   0.499  -1.261   1.121
    1  UNL   C8    9   0.480  -1.188   1.004
    1  UNL    O   10   0.574  -1.185   0.908
    1  UNL   O1   11   0.646  -1.115   0.711
    1  UNL   O2   12   0.226  -0.972   0.841
    1  UNL    H   13   0.224  -0.900   0.906
    1  UNL   C9   14   0.425  -0.965   0.642
    1  UNL  C10   15   0.329  -0.847   0.664
    1  UNL  C11   16   0.404  -0.718   0.646
    1  UNL  C12   17   0.409  -0.617   0.758
    1  UNL   O3   18   0.460  -0.694   0.542
    1  UNL  C13   19   0.369  -1.055   0.535
    1  UNL  C14   20   0.233  -1.061   0.513
    1  UNL  C15   21   0.182  -1.145   0.415
    1  UNL  C16   22   0.268  -1.221   0.339
    1  UNL  C17   23   0.404  -1.215   0.360
    1  UNL  C18   24   0.455  -1.132   0.458
    1  UNL   H1   25   0.173  -1.070   1.073
    1  UNL   H2   26   0.210  -1.198   1.274
    1  UNL   H3   27   0.416  -1.319   1.304
    1  UNL   H4   28   0.587  -1.313   1.135
    1  UNL   H5   29   0.520  -0.928   0.611
    1  UNL   H6   30   0.289  -0.852   0.763
    1  UNL   H7   31   0.250  -0.852   0.593
    1  UNL   H8   32   0.354  -0.655   0.842
    1  UNL   H9   33   0.365  -0.525   0.726
    1  UNL  H10   34   0.510  -0.600   0.787
    1  UNL  H11   35   0.169  -1.004   0.571
    1  UNL  H12   36   0.080  -1.149   0.400
    1  UNL  H13   37   0.230  -1.284   0.266
    1  UNL  H14   38   0.468  -1.273   0.303
    1  UNL  H15   39   0.557  -1.127   0.473
   11.31400    15.87000    20.77400
