; h1suc_GMX.itp created by acpype (v: 2023.10.27) on Tue Sep 16 22:18:45 2025

[ atomtypes ]
;name   bond_type     mass     charge   ptype   sigma         epsilon       Amb
 os       os          0.00000  0.00000   A     3.15610e-01   3.03758e-01 ; 1.77  0.0726
 c5       c5          0.00000  0.00000   A     3.39771e-01   4.51035e-01 ; 1.91  0.1078
 c3       c3          0.00000  0.00000   A     3.39771e-01   4.51035e-01 ; 1.91  0.1078
 oh       oh          0.00000  0.00000   A     3.24287e-01   3.89112e-01 ; 1.82  0.0930
 ho       ho          0.00000  0.00000   A     5.37925e-02   1.96648e-02 ; 0.30  0.0047
 c6       c6          0.00000  0.00000   A     3.39771e-01   4.51035e-01 ; 1.91  0.1078
 h1       h1          0.00000  0.00000   A     2.42200e-01   8.70272e-02 ; 1.36  0.0208
 h2       h2          0.00000  0.00000   A     2.24382e-01   8.70272e-02 ; 1.26  0.0208

[ moleculetype ]
;name            nrexcl
 h1suc            3

[ atoms ]
;   nr  type  resi  res  atom  cgnr     charge      mass       ; qtot   bond_type
     1   os     1   UNL     O    1    -0.435600     16.00000 ; qtot -0.436
     2   c5     1   UNL     C    2     0.267600     12.01000 ; qtot -0.168
     3   os     1   UNL    O1    3    -0.419600     16.00000 ; qtot -0.588
     4   c5     1   UNL    C1    4     0.063100     12.01000 ; qtot -0.524
     5   c5     1   UNL    C2    5     0.083100     12.01000 ; qtot -0.441
     6   c5     1   UNL    C3    6     0.144100     12.01000 ; qtot -0.297
     7   c3     1   UNL    C4    7     0.115400     12.01000 ; qtot -0.182
     8   oh     1   UNL    O2    8    -0.607800     16.00000 ; qtot -0.790
     9   ho     1   UNL     H    9     0.426000      1.00800 ; qtot -0.364
    10   oh     1   UNL    O3   10    -0.581800     16.00000 ; qtot -0.946
    11   ho     1   UNL    H1   11     0.406000      1.00800 ; qtot -0.540
    12   oh     1   UNL    O4   12    -0.571800     16.00000 ; qtot -1.111
    13   ho     1   UNL    H2   13     0.420000      1.00800 ; qtot -0.691
    14   c3     1   UNL    C5   14     0.130400     12.01000 ; qtot -0.561
    15   oh     1   UNL    O5   15    -0.585800     16.00000 ; qtot -1.147
    16   ho     1   UNL    H3   16     0.418000      1.00800 ; qtot -0.729
    17   c6     1   UNL    C6   17     0.314900     12.01000 ; qtot -0.414
    18   os     1   UNL    O6   18    -0.436600     16.00000 ; qtot -0.850
    19   c6     1   UNL    C7   19     0.082100     12.01000 ; qtot -0.768
    20   c6     1   UNL    C8   20     0.113100     12.01000 ; qtot -0.655
    21   c6     1   UNL    C9   21     0.107100     12.01000 ; qtot -0.548
    22   c6     1   UNL   C10   22     0.106100     12.01000 ; qtot -0.442
    23   c3     1   UNL   C11   23     0.094400     12.01000 ; qtot -0.348
    24   oh     1   UNL    O7   24    -0.588800     16.00000 ; qtot -0.936
    25   ho     1   UNL    H4   25     0.400000      1.00800 ; qtot -0.536
    26   oh     1   UNL    O8   26    -0.596800     16.00000 ; qtot -1.133
    27   ho     1   UNL    H5   27     0.415000      1.00800 ; qtot -0.718
    28   oh     1   UNL    O9   28    -0.599800     16.00000 ; qtot -1.318
    29   ho     1   UNL    H6   29     0.414000      1.00800 ; qtot -0.904
    30   oh     1   UNL   O10   30    -0.576800     16.00000 ; qtot -1.481
    31   ho     1   UNL    H7   31     0.431000      1.00800 ; qtot -1.050
    32   h1     1   UNL    H8   32     0.088700      1.00800 ; qtot -0.961
    33   h1     1   UNL    H9   33     0.063700      1.00800 ; qtot -0.897
    34   h1     1   UNL   H10   34     0.130700      1.00800 ; qtot -0.767
    35   h1     1   UNL   H11   35     0.055700      1.00800 ; qtot -0.711
    36   h1     1   UNL   H12   36     0.055700      1.00800 ; qtot -0.655
    37   h1     1   UNL   H13   37     0.065200      1.00800 ; qtot -0.590
    38   h1     1   UNL   H14   38     0.065200      1.00800 ; qtot -0.525
    39   h2     1   UNL   H15   39     0.057700      1.00800 ; qtot -0.467
    40   h1     1   UNL   H16   40     0.079700      1.00800 ; qtot -0.388
    41   h1     1   UNL   H17   41     0.078700      1.00800 ; qtot -0.309
    42   h1     1   UNL   H18   42     0.080700      1.00800 ; qtot -0.228
    43   h1     1   UNL   H19   43     0.088700      1.00800 ; qtot -0.139
    44   h1     1   UNL   H20   44     0.069700      1.00800 ; qtot -0.070
    45   h1     1   UNL   H21   45     0.069700      1.00800 ; qtot -0.000

[ bonds ]
;   ai     aj funct   r             k
     1      2   1    1.4346e-01    2.3063e+05 ;      O - C     
     1     17   1    1.4300e-01    2.3412e+05 ;      O - C6    
     2      3   1    1.4346e-01    2.3063e+05 ;      C - O1    
     2      6   1    1.5483e-01    1.8418e+05 ;      C - C3    
     2     14   1    1.5372e-01    1.9049e+05 ;      C - C5    
     3      4   1    1.4346e-01    2.3063e+05 ;     O1 - C1    
     4      5   1    1.5483e-01    1.8418e+05 ;     C1 - C2    
     4      7   1    1.5372e-01    1.9049e+05 ;     C1 - C4    
     4     32   1    1.0972e-01    2.8768e+05 ;     C1 - H8    
     5      6   1    1.5483e-01    1.8418e+05 ;     C2 - C3    
     5     10   1    1.4194e-01    2.4241e+05 ;     C2 - O3    
     5     33   1    1.0972e-01    2.8768e+05 ;     C2 - H9    
     6     12   1    1.4194e-01    2.4241e+05 ;     C3 - O4    
     6     34   1    1.0972e-01    2.8768e+05 ;     C3 - H10   
     7      8   1    1.4242e-01    2.3861e+05 ;     C4 - O2    
     7     35   1    1.0969e-01    2.8804e+05 ;     C4 - H11   
     7     36   1    1.0969e-01    2.8804e+05 ;     C4 - H12   
     8      9   1    9.7250e-02    4.4811e+05 ;     O2 - H     
    10     11   1    9.7250e-02    4.4811e+05 ;     O3 - H1    
    12     13   1    9.7250e-02    4.4811e+05 ;     O4 - H2    
    14     15   1    1.4242e-01    2.3861e+05 ;     C5 - O5    
    14     37   1    1.0969e-01    2.8804e+05 ;     C5 - H13   
    14     38   1    1.0969e-01    2.8804e+05 ;     C5 - H14   
    15     16   1    9.7250e-02    4.4811e+05 ;     O5 - H3    
    17     18   1    1.4300e-01    2.3412e+05 ;     C6 - O6    
    17     22   1    1.5384e-01    1.8979e+05 ;     C6 - C10   
    17     39   1    1.0985e-01    2.8609e+05 ;     C6 - H15   
    18     19   1    1.4300e-01    2.3412e+05 ;     O6 - C7    
    19     20   1    1.5384e-01    1.8979e+05 ;     C7 - C8    
    19     23   1    1.5428e-01    1.8728e+05 ;     C7 - C11   
    19     40   1    1.0984e-01    2.8620e+05 ;     C7 - H16   
    20     21   1    1.5384e-01    1.8979e+05 ;     C8 - C9    
    20     26   1    1.4241e-01    2.3870e+05 ;     C8 - O8    
    20     41   1    1.0984e-01    2.8620e+05 ;     C8 - H17   
    21     22   1    1.5384e-01    1.8979e+05 ;     C9 - C10   
    21     28   1    1.4241e-01    2.3870e+05 ;     C9 - O9    
    21     42   1    1.0984e-01    2.8620e+05 ;     C9 - H18   
    22     30   1    1.4241e-01    2.3870e+05 ;    C10 - O10   
    22     43   1    1.0984e-01    2.8620e+05 ;    C10 - H19   
    23     24   1    1.4242e-01    2.3861e+05 ;    C11 - O7    
    23     44   1    1.0969e-01    2.8804e+05 ;    C11 - H20   
    23     45   1    1.0969e-01    2.8804e+05 ;    C11 - H21   
    24     25   1    9.7250e-02    4.4811e+05 ;     O7 - H4    
    26     27   1    9.7250e-02    4.4811e+05 ;     O8 - H5    
    28     29   1    9.7250e-02    4.4811e+05 ;     O9 - H6    
    30     31   1    9.7250e-02    4.4811e+05 ;    O10 - H7    

[ pairs ]
;   ai     aj    funct
     1      4      1 ;      O - C1    
     1      5      1 ;      O - C2    
     1     12      1 ;      O - O4    
     1     15      1 ;      O - O5    
     1     19      1 ;      O - C7    
     1     21      1 ;      O - C9    
     1     30      1 ;      O - O10   
     1     34      1 ;      O - H10   
     1     37      1 ;      O - H13   
     1     38      1 ;      O - H14   
     1     43      1 ;      O - H19   
     2      7      1 ;      C - C4    
     2     10      1 ;      C - O3    
     2     13      1 ;      C - H2    
     2     16      1 ;      C - H3    
     2     18      1 ;      C - O6    
     2     22      1 ;      C - C10   
     2     32      1 ;      C - H8    
     2     33      1 ;      C - H9    
     2     39      1 ;      C - H15   
     3      8      1 ;     O1 - O2    
     3     10      1 ;     O1 - O3    
     3     12      1 ;     O1 - O4    
     3     15      1 ;     O1 - O5    
     3     33      1 ;     O1 - H9    
     3     34      1 ;     O1 - H10   
     3     35      1 ;     O1 - H11   
     3     36      1 ;     O1 - H12   
     3     37      1 ;     O1 - H13   
     3     38      1 ;     O1 - H14   
     4      9      1 ;     C1 - H     
     4     11      1 ;     C1 - H1    
     4     12      1 ;     C1 - O4    
     4     14      1 ;     C1 - C5    
     4     34      1 ;     C1 - H10   
     5      8      1 ;     C2 - O2    
     5     13      1 ;     C2 - H2    
     5     14      1 ;     C2 - C5    
     5     35      1 ;     C2 - H11   
     5     36      1 ;     C2 - H12   
     6      7      1 ;     C3 - C4    
     6     11      1 ;     C3 - H1    
     6     15      1 ;     C3 - O5    
     6     32      1 ;     C3 - H8    
     6     37      1 ;     C3 - H13   
     6     38      1 ;     C3 - H14   
     7     10      1 ;     C4 - O3    
     7     33      1 ;     C4 - H9    
     8     32      1 ;     O2 - H8    
     9     35      1 ;      H - H11   
     9     36      1 ;      H - H12   
    10     12      1 ;     O3 - O4    
    10     32      1 ;     O3 - H8    
    10     34      1 ;     O3 - H10   
    11     33      1 ;     H1 - H9    
    12     14      1 ;     O4 - C5    
    12     33      1 ;     O4 - H9    
    13     34      1 ;     H2 - H10   
    14     34      1 ;     C5 - H10   
    16     37      1 ;     H3 - H13   
    16     38      1 ;     H3 - H14   
    17      3      1 ;     C6 - O1    
    17      6      1 ;     C6 - C3    
    17     14      1 ;     C6 - C5    
    17     20      1 ;     C6 - C8    
    17     23      1 ;     C6 - C11   
    17     28      1 ;     C6 - O9    
    17     31      1 ;     C6 - H7    
    17     40      1 ;     C6 - H16   
    17     42      1 ;     C6 - H18   
    18     21      1 ;     O6 - C9    
    18     24      1 ;     O6 - O7    
    18     26      1 ;     O6 - O8    
    18     30      1 ;     O6 - O10   
    18     41      1 ;     O6 - H17   
    18     43      1 ;     O6 - H19   
    18     44      1 ;     O6 - H20   
    18     45      1 ;     O6 - H21   
    19     22      1 ;     C7 - C10   
    19     25      1 ;     C7 - H4    
    19     27      1 ;     C7 - H5    
    19     28      1 ;     C7 - O9    
    19     39      1 ;     C7 - H15   
    19     42      1 ;     C7 - H18   
    20     24      1 ;     C8 - O7    
    20     29      1 ;     C8 - H6    
    20     30      1 ;     C8 - O10   
    20     43      1 ;     C8 - H19   
    20     44      1 ;     C8 - H20   
    20     45      1 ;     C8 - H21   
    21     23      1 ;     C9 - C11   
    21     27      1 ;     C9 - H5    
    21     31      1 ;     C9 - H7    
    21     39      1 ;     C9 - H15   
    21     40      1 ;     C9 - H16   
    22     26      1 ;    C10 - O8    
    22     29      1 ;    C10 - H6    
    22     41      1 ;    C10 - H17   
    23     26      1 ;    C11 - O8    
    23     41      1 ;    C11 - H17   
    24     40      1 ;     O7 - H16   
    25     44      1 ;     H4 - H20   
    25     45      1 ;     H4 - H21   
    26     28      1 ;     O8 - O9    
    26     40      1 ;     O8 - H16   
    26     42      1 ;     O8 - H18   
    27     41      1 ;     H5 - H17   
    28     30      1 ;     O9 - O10   
    28     41      1 ;     O9 - H17   
    28     43      1 ;     O9 - H19   
    29     42      1 ;     H6 - H18   
    30     39      1 ;    O10 - H15   
    30     42      1 ;    O10 - H18   
    31     43      1 ;     H7 - H19   
    32     33      1 ;     H8 - H9    
    32     35      1 ;     H8 - H11   
    32     36      1 ;     H8 - H12   
    33     34      1 ;     H9 - H10   
    39     43      1 ;    H15 - H19   
    40     41      1 ;    H16 - H17   
    40     44      1 ;    H16 - H20   
    40     45      1 ;    H16 - H21   
    41     42      1 ;    H17 - H18   
    42     43      1 ;    H18 - H19   

[ angles ]
;   ai     aj     ak    funct   theta         cth
     1      2      3      1    1.0789e+02    8.1956e+02 ;      O - C      - O1    
     1      2      6      1    1.0614e+02    6.4793e+02 ;      O - C      - C3    
     1      2     14      1    1.0897e+02    6.4224e+02 ;      O - C      - C5    
     1     17     18      1    1.0950e+02    8.1613e+02 ;      O - C6     - O6    
     1     17     22      1    1.1009e+02    6.3948e+02 ;      O - C6     - C10   
     1     17     39      1    1.0944e+02    4.7137e+02 ;      O - C6     - H15   
     2      1     17      1    1.1500e+02    7.3212e+02 ;      C - O      - C6    
     2      3      4      1    1.0926e+02    7.4986e+02 ;      C - O1     - C1    
     2      6      5      1    1.0383e+02    5.1748e+02 ;      C - C3     - C2    
     2      6     12      1    1.1162e+02    6.3455e+02 ;      C - C3     - O4    
     2      6     34      1    1.1117e+02    3.5690e+02 ;      C - C3     - H10   
     2     14     15      1    1.0985e+02    6.4157e+02 ;      C - C5     - O5    
     2     14     37      1    1.0938e+02    3.6217e+02 ;      C - C5     - H13   
     2     14     38      1    1.0938e+02    3.6217e+02 ;      C - C5     - H14   
     3      2      6      1    1.0614e+02    6.4793e+02 ;     O1 - C      - C3    
     3      2     14      1    1.0897e+02    6.4224e+02 ;     O1 - C      - C5    
     3      4      5      1    1.0614e+02    6.4793e+02 ;     O1 - C1     - C2    
     3      4      7      1    1.0897e+02    6.4224e+02 ;     O1 - C1     - C4    
     3      4     32      1    1.0846e+02    4.7229e+02 ;     O1 - C1     - H8    
     4      5      6      1    1.0383e+02    5.1748e+02 ;     C1 - C2     - C3    
     4      5     10      1    1.1162e+02    6.3455e+02 ;     C1 - C2     - O3    
     4      5     33      1    1.1117e+02    3.5690e+02 ;     C1 - C2     - H9    
     4      7      8      1    1.0985e+02    6.4157e+02 ;     C1 - C4     - O2    
     4      7     35      1    1.0938e+02    3.6217e+02 ;     C1 - C4     - H11   
     4      7     36      1    1.0938e+02    3.6217e+02 ;     C1 - C4     - H12   
     5      4      7      1    1.1360e+02    4.9647e+02 ;     C2 - C1     - C4    
     5      4     32      1    1.1117e+02    3.5690e+02 ;     C2 - C1     - H8    
     5      6     12      1    1.1162e+02    6.3455e+02 ;     C2 - C3     - O4    
     5      6     34      1    1.1117e+02    3.5690e+02 ;     C2 - C3     - H10   
     5     10     11      1    1.0717e+02    5.4727e+02 ;     C2 - O3     - H1    
     6      2     14      1    1.1360e+02    4.9647e+02 ;     C3 - C      - C5    
     6      5     10      1    1.1162e+02    6.3455e+02 ;     C3 - C2     - O3    
     6      5     33      1    1.1117e+02    3.5690e+02 ;     C3 - C2     - H9    
     6     12     13      1    1.0717e+02    5.4727e+02 ;     C3 - O4     - H2    
     7      4     32      1    1.0924e+02    3.6242e+02 ;     C4 - C1     - H8    
     7      8      9      1    1.0739e+02    5.4501e+02 ;     C4 - O2     - H     
     8      7     35      1    1.1038e+02    4.7103e+02 ;     O2 - C4     - H11   
     8      7     36      1    1.1038e+02    4.7103e+02 ;     O2 - C4     - H12   
    10      5     33      1    1.1027e+02    4.7254e+02 ;     O3 - C2     - H9    
    12      6     34      1    1.1027e+02    4.7254e+02 ;     O4 - C3     - H10   
    14     15     16      1    1.0739e+02    5.4501e+02 ;     C5 - O5     - H3    
    15     14     37      1    1.1038e+02    4.7103e+02 ;     O5 - C5     - H13   
    15     14     38      1    1.1038e+02    4.7103e+02 ;     O5 - C5     - H14   
    17     18     19      1    1.1330e+02    7.3873e+02 ;     C6 - O6     - C7    
    17     22     21      1    1.1106e+02    5.0359e+02 ;     C6 - C10    - C9    
    17     22     30      1    1.1005e+02    6.4065e+02 ;     C6 - C10    - O10   
    17     22     43      1    1.0918e+02    3.6217e+02 ;     C6 - C10    - H19   
    18     17     22      1    1.1009e+02    6.3948e+02 ;     O6 - C6     - C10   
    18     17     39      1    1.0944e+02    4.7137e+02 ;     O6 - C6     - H15   
    18     19     20      1    1.1009e+02    6.3948e+02 ;     O6 - C7     - C8    
    18     19     23      1    1.0683e+02    6.4810e+02 ;     O6 - C7     - C11   
    18     19     40      1    1.0808e+02    4.7430e+02 ;     O6 - C7     - H16   
    19     20     21      1    1.1106e+02    5.0359e+02 ;     C7 - C8     - C9    
    19     20     26      1    1.1005e+02    6.4065e+02 ;     C7 - C8     - O8    
    19     20     41      1    1.0918e+02    3.6217e+02 ;     C7 - C8     - H17   
    19     23     24      1    1.1145e+02    6.3555e+02 ;     C7 - C11    - O7    
    19     23     44      1    1.0913e+02    3.6141e+02 ;     C7 - C11    - H20   
    19     23     45      1    1.0913e+02    3.6141e+02 ;     C7 - C11    - H21   
    20     19     23      1    1.1143e+02    5.0200e+02 ;     C8 - C7     - C11   
    20     19     40      1    1.0918e+02    3.6217e+02 ;     C8 - C7     - H16   
    20     21     22      1    1.1106e+02    5.0359e+02 ;     C8 - C9     - C10   
    20     21     28      1    1.1005e+02    6.4065e+02 ;     C8 - C9     - O9    
    20     21     42      1    1.0918e+02    3.6217e+02 ;     C8 - C9     - H18   
    20     26     27      1    1.0707e+02    5.4584e+02 ;     C8 - O8     - H5    
    21     20     26      1    1.1005e+02    6.4065e+02 ;     C9 - C8     - O8    
    21     20     41      1    1.0918e+02    3.6217e+02 ;     C9 - C8     - H17   
    21     22     30      1    1.1005e+02    6.4065e+02 ;     C9 - C10    - O10   
    21     22     43      1    1.0918e+02    3.6217e+02 ;     C9 - C10    - H19   
    21     28     29      1    1.0707e+02    5.4584e+02 ;     C9 - O9     - H6    
    22     17     39      1    1.0998e+02    3.6083e+02 ;    C10 - C6     - H15   
    22     21     28      1    1.1005e+02    6.4065e+02 ;    C10 - C9     - O9    
    22     21     42      1    1.0918e+02    3.6217e+02 ;    C10 - C9     - H18   
    22     30     31      1    1.0707e+02    5.4584e+02 ;    C10 - O10    - H7    
    23     19     40      1    1.0855e+02    3.6233e+02 ;    C11 - C7     - H16   
    23     24     25      1    1.0739e+02    5.4501e+02 ;    C11 - O7     - H4    
    24     23     44      1    1.1038e+02    4.7103e+02 ;     O7 - C11    - H20   
    24     23     45      1    1.1038e+02    4.7103e+02 ;     O7 - C11    - H21   
    26     20     41      1    1.0996e+02    4.7187e+02 ;     O8 - C8     - H17   
    28     21     42      1    1.0996e+02    4.7187e+02 ;     O9 - C9     - H18   
    30     22     43      1    1.0996e+02    4.7187e+02 ;    O10 - C10    - H19   
    35      7     36      1    1.0855e+02    2.9824e+02 ;    H11 - C4     - H12   
    37     14     38      1    1.0855e+02    2.9824e+02 ;    H13 - C5     - H14   
    44     23     45      1    1.0855e+02    2.9824e+02 ;    H20 - C11    - H21   

[ dihedrals ] ; propers
; for gromacs 4.5 or higher, using funct 9
;    i      j      k      l   func   phase     kd      pn
     1      2      3      4      9     0.00   3.55640   2 ;      O-     C-    O1-    C1
     1      2      3      4      9     0.00   3.55640   3 ;      O-     C-    O1-    C1
     1      2      3      4      9   180.00   1.92464   1 ;      O-     C-    O1-    C1
     1      2      6      5      9     0.00   0.65084   3 ;      O-     C-    C3-    C2
     1      2      6     12      9     0.00   2.46856   1 ;      O-     C-    C3-    O4
     1      2      6     12      9     0.00   3.30536   3 ;      O-     C-    C3-    O4
     1      2      6     12      9     0.00   5.27184   2 ;      O-     C-    C3-    O4
     1      2      6     34      9     0.00   0.00000   0 ;      O-     C-    C3-   H10
     1      2      6     34      9     0.00   1.04600   1 ;      O-     C-    C3-   H10
     1      2     14     15      9     0.00   2.46856   1 ;      O-     C-    C5-    O5
     1      2     14     15      9     0.00   3.30536   3 ;      O-     C-    C5-    O5
     1      2     14     15      9     0.00   5.27184   2 ;      O-     C-    C5-    O5
     1      2     14     37      9     0.00   0.00000   0 ;      O-     C-    C5-   H13
     1      2     14     37      9     0.00   1.04600   1 ;      O-     C-    C5-   H13
     1      2     14     38      9     0.00   0.00000   0 ;      O-     C-    C5-   H14
     1      2     14     38      9     0.00   1.04600   1 ;      O-     C-    C5-   H14
     1     17     18     19      9     0.00   0.12552   3 ;      O-    C6-    O6-    C7
     1     17     18     19      9     0.00   6.23416   2 ;      O-    C6-    O6-    C7
     1     17     18     19      9   180.00   3.68192   1 ;      O-    C6-    O6-    C7
     1     17     22     21      9     0.00   0.65084   3 ;      O-    C6-   C10-    C9
     1     17     22     30      9     0.00   4.47688   3 ;      O-    C6-   C10-   O10
     1     17     22     30      9   180.00   2.80328   1 ;      O-    C6-   C10-   O10
     1     17     22     30      9   180.00   3.05432   2 ;      O-    C6-   C10-   O10
     1     17     22     43      9     0.00   0.00000   0 ;      O-    C6-   C10-   H19
     1     17     22     43      9     0.00   1.04600   1 ;      O-    C6-   C10-   H19
     2      1     17     18      9     0.00   3.55640   2 ;      C-     O-    C6-    O6
     2      1     17     18      9     0.00   3.55640   3 ;      C-     O-    C6-    O6
     2      1     17     18      9   180.00   1.92464   1 ;      C-     O-    C6-    O6
     2      1     17     22      9   180.00   0.71128   3 ;      C-     O-    C6-   C10
     2      1     17     22      9   180.00   4.18400   2 ;      C-     O-    C6-   C10
     2      1     17     22      9   180.00   8.82824   1 ;      C-     O-    C6-   C10
     2      1     17     39      9     0.00   1.60387   3 ;      C-     O-    C6-   H15
     2      3      4      5      9     0.00   0.33472   2 ;      C-    O1-    C1-    C2
     2      3      4      5      9     0.00   3.13800   3 ;      C-    O1-    C1-    C2
     2      3      4      5      9   180.00   3.68192   1 ;      C-    O1-    C1-    C2
     2      3      4      7      9     0.00   0.33472   2 ;      C-    O1-    C1-    C4
     2      3      4      7      9     0.00   3.13800   3 ;      C-    O1-    C1-    C4
     2      3      4      7      9   180.00   3.68192   1 ;      C-    O1-    C1-    C4
     2      3      4     32      9     0.00   1.41001   3 ;      C-    O1-    C1-    H8
     2      6      5      4      9     0.00   2.17568   3 ;      C-    C3-    C2-    C1
     2      6      5     10      9     0.00   0.75312   3 ;      C-    C3-    C2-    O3
     2      6      5     33      9     0.00   0.65084   3 ;      C-    C3-    C2-    H9
     2      6     12     13      9     0.00   0.25104   3 ;      C-    C3-    O4-    H2
     2     14     15     16      9     0.00   0.25104   3 ;      C-    C5-    O5-    H3
     3      2      6      5      9     0.00   0.65084   3 ;     O1-     C-    C3-    C2
     3      2      6     12      9     0.00   2.46856   1 ;     O1-     C-    C3-    O4
     3      2      6     12      9     0.00   3.30536   3 ;     O1-     C-    C3-    O4
     3      2      6     12      9     0.00   5.27184   2 ;     O1-     C-    C3-    O4
     3      2      6     34      9     0.00   0.00000   0 ;     O1-     C-    C3-   H10
     3      2      6     34      9     0.00   1.04600   1 ;     O1-     C-    C3-   H10
     3      2     14     15      9     0.00   2.46856   1 ;     O1-     C-    C5-    O5
     3      2     14     15      9     0.00   3.30536   3 ;     O1-     C-    C5-    O5
     3      2     14     15      9     0.00   5.27184   2 ;     O1-     C-    C5-    O5
     3      2     14     37      9     0.00   0.00000   0 ;     O1-     C-    C5-   H13
     3      2     14     37      9     0.00   1.04600   1 ;     O1-     C-    C5-   H13
     3      2     14     38      9     0.00   0.00000   0 ;     O1-     C-    C5-   H14
     3      2     14     38      9     0.00   1.04600   1 ;     O1-     C-    C5-   H14
     3      4      5      6      9     0.00   0.65084   3 ;     O1-    C1-    C2-    C3
     3      4      5     10      9     0.00   2.46856   1 ;     O1-    C1-    C2-    O3
     3      4      5     10      9     0.00   3.30536   3 ;     O1-    C1-    C2-    O3
     3      4      5     10      9     0.00   5.27184   2 ;     O1-    C1-    C2-    O3
     3      4      5     33      9     0.00   0.00000   0 ;     O1-    C1-    C2-    H9
     3      4      5     33      9     0.00   1.04600   1 ;     O1-    C1-    C2-    H9
     3      4      7      8      9     0.00   2.46856   1 ;     O1-    C1-    C4-    O2
     3      4      7      8      9     0.00   3.30536   3 ;     O1-    C1-    C4-    O2
     3      4      7      8      9     0.00   5.27184   2 ;     O1-    C1-    C4-    O2
     3      4      7     35      9     0.00   0.00000   0 ;     O1-    C1-    C4-   H11
     3      4      7     35      9     0.00   1.04600   1 ;     O1-    C1-    C4-   H11
     3      4      7     36      9     0.00   0.00000   0 ;     O1-    C1-    C4-   H12
     3      4      7     36      9     0.00   1.04600   1 ;     O1-    C1-    C4-   H12
     4      3      2      6      9     0.00   0.33472   2 ;     C1-    O1-     C-    C3
     4      3      2      6      9     0.00   3.13800   3 ;     C1-    O1-     C-    C3
     4      3      2      6      9   180.00   3.68192   1 ;     C1-    O1-     C-    C3
     4      3      2     14      9     0.00   0.33472   2 ;     C1-    O1-     C-    C5
     4      3      2     14      9     0.00   3.13800   3 ;     C1-    O1-     C-    C5
     4      3      2     14      9   180.00   3.68192   1 ;     C1-    O1-     C-    C5
     4      5      6     12      9     0.00   0.75312   3 ;     C1-    C2-    C3-    O4
     4      5      6     34      9     0.00   0.65084   3 ;     C1-    C2-    C3-   H10
     4      5     10     11      9     0.00   0.25104   3 ;     C1-    C2-    O3-    H1
     4      7      8      9      9     0.00   0.25104   3 ;     C1-    C4-    O2-     H
     5      4      7      8      9     0.00   0.75312   3 ;     C2-    C1-    C4-    O2
     5      4      7     35      9     0.00   0.65084   3 ;     C2-    C1-    C4-   H11
     5      4      7     36      9     0.00   0.65084   3 ;     C2-    C1-    C4-   H12
     5      6      2     14      9     0.00   2.17568   3 ;     C2-    C3-     C-    C5
     5      6     12     13      9     0.00   0.25104   3 ;     C2-    C3-    O4-    H2
     6      2     14     15      9     0.00   0.75312   3 ;     C3-     C-    C5-    O5
     6      2     14     37      9     0.00   0.65084   3 ;     C3-     C-    C5-   H13
     6      2     14     38      9     0.00   0.65084   3 ;     C3-     C-    C5-   H14
     6      5      4      7      9     0.00   2.17568   3 ;     C3-    C2-    C1-    C4
     6      5      4     32      9     0.00   0.65084   3 ;     C3-    C2-    C1-    H8
     6      5     10     11      9     0.00   0.25104   3 ;     C3-    C2-    O3-    H1
     7      4      5     10      9     0.00   0.75312   3 ;     C4-    C1-    C2-    O3
     7      4      5     33      9     0.00   0.65084   3 ;     C4-    C1-    C2-    H9
     8      7      4     32      9     0.00   0.00000   0 ;     O2-    C4-    C1-    H8
     8      7      4     32      9     0.00   1.04600   1 ;     O2-    C4-    C1-    H8
     9      8      7     35      9     0.00   0.51463   3 ;      H-    O2-    C4-   H11
     9      8      7     36      9     0.00   0.51463   3 ;      H-    O2-    C4-   H12
    10      5      4     32      9     0.00   0.00000   0 ;     O3-    C2-    C1-    H8
    10      5      4     32      9     0.00   1.04600   1 ;     O3-    C2-    C1-    H8
    10      5      6     12      9     0.00   4.18400   1 ;     O3-    C2-    C3-    O4
    10      5      6     12      9     0.00   6.02496   3 ;     O3-    C2-    C3-    O4
    10      5      6     34      9     0.00   0.00000   0 ;     O3-    C2-    C3-   H10
    10      5      6     34      9     0.00   1.04600   1 ;     O3-    C2-    C3-   H10
    11     10      5     33      9     0.00   0.51463   3 ;     H1-    O3-    C2-    H9
    12      6      2     14      9     0.00   0.75312   3 ;     O4-    C3-     C-    C5
    12      6      5     33      9     0.00   0.00000   0 ;     O4-    C3-    C2-    H9
    12      6      5     33      9     0.00   1.04600   1 ;     O4-    C3-    C2-    H9
    13     12      6     34      9     0.00   0.51463   3 ;     H2-    O4-    C3-   H10
    14      2      6     34      9     0.00   0.65084   3 ;     C5-     C-    C3-   H10
    16     15     14     37      9     0.00   0.51463   3 ;     H3-    O5-    C5-   H13
    16     15     14     38      9     0.00   0.51463   3 ;     H3-    O5-    C5-   H14
    17      1      2      3      9     0.00   0.00000   0 ;     C6-     O-     C-    O1
    17      1      2      3      9     0.00   0.00000   0 ;     C6-     O-     C-    O1
    17      1      2      3      9     0.00  24.35088   1 ;     C6-     O-     C-    O1
    17      1      2      6      9     0.00   0.33472   2 ;     C6-     O-     C-    C3
    17      1      2      6      9     0.00   3.13800   3 ;     C6-     O-     C-    C3
    17      1      2      6      9   180.00   3.68192   1 ;     C6-     O-     C-    C3
    17      1      2     14      9     0.00   0.33472   2 ;     C6-     O-     C-    C5
    17      1      2     14      9     0.00   3.13800   3 ;     C6-     O-     C-    C5
    17      1      2     14      9   180.00   3.68192   1 ;     C6-     O-     C-    C5
    17     18     19     20      9     0.00   4.85344   3 ;     C6-    O6-    C7-    C8
    17     18     19     20      9     0.00   5.77392   2 ;     C6-    O6-    C7-    C8
    17     18     19     20      9   180.00   1.46440   1 ;     C6-    O6-    C7-    C8
    17     18     19     23      9     0.00   0.33472   2 ;     C6-    O6-    C7-   C11
    17     18     19     23      9     0.00   3.13800   3 ;     C6-    O6-    C7-   C11
    17     18     19     23      9   180.00   3.68192   1 ;     C6-    O6-    C7-   C11
    17     18     19     40      9     0.00   1.41001   3 ;     C6-    O6-    C7-   H16
    17     22     21     20      9     0.00   2.17568   3 ;     C6-   C10-    C9-    C8
    17     22     21     28      9     0.00   0.75312   3 ;     C6-   C10-    C9-    O9
    17     22     21     42      9     0.00   0.65084   3 ;     C6-   C10-    C9-   H18
    17     22     30     31      9     0.00   0.25104   3 ;     C6-   C10-   O10-    H7
    18     17     22     21      9     0.00   0.65084   3 ;     O6-    C6-   C10-    C9
    18     17     22     30      9     0.00   4.47688   3 ;     O6-    C6-   C10-   O10
    18     17     22     30      9   180.00   2.80328   1 ;     O6-    C6-   C10-   O10
    18     17     22     30      9   180.00   3.05432   2 ;     O6-    C6-   C10-   O10
    18     17     22     43      9     0.00   0.00000   0 ;     O6-    C6-   C10-   H19
    18     17     22     43      9     0.00   1.04600   1 ;     O6-    C6-   C10-   H19
    18     19     20     21      9     0.00   0.65084   3 ;     O6-    C7-    C8-    C9
    18     19     20     26      9     0.00   4.47688   3 ;     O6-    C7-    C8-    O8
    18     19     20     26      9   180.00   2.80328   1 ;     O6-    C7-    C8-    O8
    18     19     20     26      9   180.00   3.05432   2 ;     O6-    C7-    C8-    O8
    18     19     20     41      9     0.00   0.00000   0 ;     O6-    C7-    C8-   H17
    18     19     20     41      9     0.00   1.04600   1 ;     O6-    C7-    C8-   H17
    18     19     23     24      9     0.00   4.47688   3 ;     O6-    C7-   C11-    O7
    18     19     23     24      9   180.00   2.80328   1 ;     O6-    C7-   C11-    O7
    18     19     23     24      9   180.00   3.05432   2 ;     O6-    C7-   C11-    O7
    18     19     23     44      9     0.00   0.00000   0 ;     O6-    C7-   C11-   H20
    18     19     23     44      9     0.00   1.04600   1 ;     O6-    C7-   C11-   H20
    18     19     23     45      9     0.00   0.00000   0 ;     O6-    C7-   C11-   H21
    18     19     23     45      9     0.00   1.04600   1 ;     O6-    C7-   C11-   H21
    19     18     17     22      9     0.00   4.85344   3 ;     C7-    O6-    C6-   C10
    19     18     17     22      9     0.00   5.77392   2 ;     C7-    O6-    C6-   C10
    19     18     17     22      9   180.00   1.46440   1 ;     C7-    O6-    C6-   C10
    19     18     17     39      9     0.00   1.60387   3 ;     C7-    O6-    C6-   H15
    19     20     21     22      9     0.00   2.17568   3 ;     C7-    C8-    C9-   C10
    19     20     21     28      9     0.00   0.75312   3 ;     C7-    C8-    C9-    O9
    19     20     21     42      9     0.00   0.65084   3 ;     C7-    C8-    C9-   H18
    19     20     26     27      9     0.00   0.25104   3 ;     C7-    C8-    O8-    H5
    19     23     24     25      9     0.00   0.25104   3 ;     C7-   C11-    O7-    H4
    20     19     23     24      9     0.00   0.75312   3 ;     C8-    C7-   C11-    O7
    20     19     23     44      9     0.00   0.65084   3 ;     C8-    C7-   C11-   H20
    20     19     23     45      9     0.00   0.65084   3 ;     C8-    C7-   C11-   H21
    20     21     22     30      9     0.00   0.75312   3 ;     C8-    C9-   C10-   O10
    20     21     22     43      9     0.00   0.65084   3 ;     C8-    C9-   C10-   H19
    20     21     28     29      9     0.00   0.25104   3 ;     C8-    C9-    O9-    H6
    21     20     19     23      9     0.00   2.17568   3 ;     C9-    C8-    C7-   C11
    21     20     19     40      9     0.00   0.65084   3 ;     C9-    C8-    C7-   H16
    21     20     26     27      9     0.00   0.25104   3 ;     C9-    C8-    O8-    H5
    21     22     17     39      9     0.00   0.65084   3 ;     C9-   C10-    C6-   H15
    21     22     30     31      9     0.00   0.25104   3 ;     C9-   C10-   O10-    H7
    22     21     20     26      9     0.00   0.75312   3 ;    C10-    C9-    C8-    O8
    22     21     20     41      9     0.00   0.65084   3 ;    C10-    C9-    C8-   H17
    22     21     28     29      9     0.00   0.25104   3 ;    C10-    C9-    O9-    H6
    23     19     20     26      9     0.00   0.75312   3 ;    C11-    C7-    C8-    O8
    23     19     20     41      9     0.00   0.65084   3 ;    C11-    C7-    C8-   H17
    24     23     19     40      9     0.00   0.00000   0 ;     O7-   C11-    C7-   H16
    24     23     19     40      9     0.00   1.04600   1 ;     O7-   C11-    C7-   H16
    25     24     23     44      9     0.00   0.51463   3 ;     H4-    O7-   C11-   H20
    25     24     23     45      9     0.00   0.51463   3 ;     H4-    O7-   C11-   H21
    26     20     19     40      9     0.00   0.00000   0 ;     O8-    C8-    C7-   H16
    26     20     19     40      9     0.00   1.04600   1 ;     O8-    C8-    C7-   H16
    26     20     21     28      9     0.00   4.18400   1 ;     O8-    C8-    C9-    O9
    26     20     21     28      9     0.00   6.02496   3 ;     O8-    C8-    C9-    O9
    26     20     21     42      9     0.00   0.00000   0 ;     O8-    C8-    C9-   H18
    26     20     21     42      9     0.00   1.04600   1 ;     O8-    C8-    C9-   H18
    27     26     20     41      9     0.00   0.51463   3 ;     H5-    O8-    C8-   H17
    28     21     20     41      9     0.00   0.00000   0 ;     O9-    C9-    C8-   H17
    28     21     20     41      9     0.00   1.04600   1 ;     O9-    C9-    C8-   H17
    28     21     22     30      9     0.00   4.18400   1 ;     O9-    C9-   C10-   O10
    28     21     22     30      9     0.00   6.02496   3 ;     O9-    C9-   C10-   O10
    28     21     22     43      9     0.00   0.00000   0 ;     O9-    C9-   C10-   H19
    28     21     22     43      9     0.00   1.04600   1 ;     O9-    C9-   C10-   H19
    29     28     21     42      9     0.00   0.51463   3 ;     H6-    O9-    C9-   H18
    30     22     17     39      9     0.00   0.65084   3 ;    O10-   C10-    C6-   H15
    30     22     21     42      9     0.00   0.00000   0 ;    O10-   C10-    C9-   H18
    30     22     21     42      9     0.00   1.04600   1 ;    O10-   C10-    C9-   H18
    31     30     22     43      9     0.00   0.51463   3 ;     H7-   O10-   C10-   H19
    32      4      5     33      9     0.00   0.65084   3 ;     H8-    C1-    C2-    H9
    32      4      7     35      9     0.00   0.65084   3 ;     H8-    C1-    C4-   H11
    32      4      7     36      9     0.00   0.65084   3 ;     H8-    C1-    C4-   H12
    33      5      6     34      9     0.00   0.65084   3 ;     H9-    C2-    C3-   H10
    39     17     22     43      9     0.00   0.65084   3 ;    H15-    C6-   C10-   H19
    40     19     20     41      9     0.00   0.65084   3 ;    H16-    C7-    C8-   H17
    40     19     23     44      9     0.00   0.65084   3 ;    H16-    C7-   C11-   H20
    40     19     23     45      9     0.00   0.65084   3 ;    H16-    C7-   C11-   H21
    41     20     21     42      9     0.00   0.65084   3 ;    H17-    C8-    C9-   H18
    42     21     22     43      9     0.00   0.65084   3 ;    H18-    C9-   C10-   H19
