h1suc_GMX.gro created by acpype (v: 2023.10.27) on Tue Sep 16 22:18:45 2025
 45
    1  UNL    O    1   0.441  -0.772   0.771
    1  UNL    C    2   0.354  -0.877   0.730
    1  UNL   O1    3   0.270  -0.917   0.840
    1  UNL   C1    4   0.331  -1.030   0.905
    1  UNL   C2    5   0.464  -1.055   0.836
    1  UNL   C3    6   0.436  -1.001   0.697
    1  UNL   C4    7   0.347  -1.000   1.054
    1  UNL   O2    8   0.235  -1.052   1.123
    1  UNL    H    9   0.206  -0.985   1.187
    1  UNL   O3   10   0.495  -1.193   0.833
    1  UNL   H1   11   0.522  -1.219   0.923
    1  UNL   O4   12   0.553  -0.973   0.624
    1  UNL   H2   13   0.577  -0.881   0.642
    1  UNL   C5   14   0.268  -0.830   0.613
    1  UNL   O5   15   0.238  -0.941   0.531
    1  UNL   H3   16   0.180  -0.910   0.460
    1  UNL   C6   17   0.411  -0.650   0.703
    1  UNL   O6   18   0.397  -0.543   0.797
    1  UNL   C7   19   0.364  -0.416   0.739
    1  UNL   C8   20   0.467  -0.374   0.633
    1  UNL   C9   21   0.502  -0.486   0.533
    1  UNL  C10   22   0.524  -0.620   0.604
    1  UNL  C11   23   0.220  -0.413   0.690
    1  UNL   O7   24   0.207  -0.309   0.595
    1  UNL   H4   25   0.233  -0.226   0.638
    1  UNL   O8   26   0.588  -0.336   0.699
    1  UNL   H5   27   0.564  -0.302   0.787
    1  UNL   O9   28   0.396  -0.501   0.439
    1  UNL   H6   29   0.426  -0.566   0.372
    1  UNL  O10   30   0.649  -0.617   0.673
    1  UNL   H7   31   0.664  -0.525   0.702
    1  UNL   H8   32   0.271  -1.118   0.899
    1  UNL   H9   33   0.549  -1.010   0.883
    1  UNL  H10   34   0.385  -1.070   0.633
    1  UNL  H11   35   0.352  -0.894   1.069
    1  UNL  H12   36   0.437  -1.045   1.090
    1  UNL  H13   37   0.321  -0.756   0.557
    1  UNL  H14   38   0.177  -0.786   0.650
    1  UNL  H15   39   0.318  -0.659   0.651
    1  UNL  H16   40   0.371  -0.342   0.816
    1  UNL  H17   41   0.423  -0.294   0.577
    1  UNL  H18   42   0.593  -0.457   0.484
    1  UNL  H19   43   0.525  -0.697   0.530
    1  UNL  H20   44   0.154  -0.395   0.772
    1  UNL  H21   45   0.194  -0.507   0.646
   10.20200    19.85400    16.29800
