; h1suc_GMX.top created by acpype (v: 2023.10.27) on Tue Sep 16 22:18:45 2025

[ defaults ]
; nbfunc        comb-rule       gen-pairs       fudgeLJ fudgeQQ
1               2               yes             0.5     0.8333333333

; Include h1suc_GMX.itp topology
#include "h1suc_GMX.itp"

; Ligand position restraints
#ifdef POSRES_LIG
#include "posre_h1suc.itp"
#endif

[ system ]
 h1suc

[ molecules ]
; Compound        nmols
 h1suc            1     
