SUC-Site1_1h.pdb
    45
   4.4140000  -7.7150000   7.7050000   3.5380000  -8.7680000   7.2970000
   2.7030000  -9.1660000   8.4000000   3.3140000 -10.2950000   9.0550000
   4.6440000 -10.5510000   8.3550000   4.3560000 -10.0130000   6.9690000
   3.4720000  -9.9970000  10.5350000   2.3530000 -10.5220000  11.2300000
   2.0640000  -9.8500000  11.8720000   4.9470000 -11.9330000   8.3320000
   5.2160000 -12.1880000   9.2300000   5.5320000  -9.7320000   6.2380000
   5.7720000  -8.8060000   6.4150000   2.6800000  -8.2980000   6.1330000
   2.3820000  -9.4120000   5.3080000   1.8010000  -9.0970000   4.5950000
   4.1100000  -6.4960000   7.0310000   3.9710000  -5.4310000   7.9680000
   3.6440000  -4.1590000   7.3930000   4.6700000  -3.7380000   6.3260000
   5.0170000  -4.8570000   5.3350000   5.2380000  -6.1970000   6.0420000
   2.1990000  -4.1300000   6.9010000   2.0690000  -3.0930000   5.9470000
   2.3280000  -2.2610000   6.3780000   5.8800000  -3.3590000   6.9900000
   5.6390000  -3.0220000   7.8690000   3.9630000  -5.0150000   4.3890000
   4.2610000  -5.6570000   3.7230000   6.4880000  -6.1690000   6.7340000
   6.6420000  -5.2520000   7.0160000   2.7130000 -11.1780000   8.9880000
   5.4910000 -10.0980000   8.8270000   3.8480000 -10.7030000   6.3280000
   3.5240000  -8.9390000  10.6850000   4.3710000 -10.4470000  10.9020000
   3.2130000  -7.5630000   5.5670000   1.7740000  -7.8640000   6.5010000
   3.1830000  -6.5910000   6.5050000   3.7090000  -3.4160000   8.1610000
   4.2300000  -2.9360000   5.7700000   5.9250000  -4.5730000   4.8450000
   5.2460000  -6.9700000   5.3020000   1.5410000  -3.9470000   7.7250000
   1.9440000  -5.0700000   6.4570000
