; h1suc_GMX_OPLS.top created by acpype (v: 2023.10.27) on Tue Sep 16 22:18:45 2025

; Include forcefield parameters
#include "ffoplsaa.itp"

; Include h1suc_GMX.itp topology
#include "h1suc_GMX.itp"

; Ligand position restraints
#ifdef POSRES_LIG
#include "posre_h1suc.itp"
#endif

[ system ]
 h1suc

[ molecules ]
; Compound        nmols
 h1suc            1     
