%VERSION  VERSION_STAMP = V0001.000  DATE = 09/16/25  22:19:23                  
%FLAG TITLE                                                                     
%FORMAT(20a4)                                                                   
SUC-Site1_1h.pdb                                                                
%FLAG POINTERS                                                                  
%FORMAT(10I8)                                                                   
      45       6      22      24      47      36     105     102       0       0
     258       1      24      36     102      14      34      33       8       0
       0       0       0       0       0       0       0       0      45       0
       0
%FLAG ATOM_NAME                                                                 
%FORMAT(20a4)                                                                   
O   C   O1  C1  C2  C3  C4  O2  H   O3  H1  O4  H2  C5  O5  H3  C6  O6  C7  C8  
C9  C10 C11 O7  H4  O8  H5  O9  H6  O10 H7  H8  H9  H10 H11 H12 H13 H14 H15 H16 
H17 H18 H19 H20 H21 
%FLAG CHARGE                                                                    
%FORMAT(5E16.8)                                                                 
 -7.93763388E+00  4.87628748E+00 -7.64607708E+00  1.14982713E+00  1.51427313E+00
  2.62583343E+00  2.10285342E+00 -1.10755139E+01  7.76269980E+00 -1.06017341E+01
  7.39825380E+00 -1.04195111E+01  7.65336600E+00  2.37618792E+00 -1.06746233E+01
  7.61692140E+00  5.73820227E+00 -7.95585618E+00  1.49605083E+00  2.06094213E+00
  1.95160833E+00  1.93338603E+00  1.72018512E+00 -1.07292902E+01  7.28892000E+00
 -1.08750686E+01  7.56225450E+00 -1.09297355E+01  7.54403220E+00 -1.05106226E+01
  7.85381130E+00  1.61631801E+00  1.16076051E+00  2.38165461E+00  1.01498211E+00
  1.01498211E+00  1.18809396E+00  1.18809396E+00  1.05142671E+00  1.45231731E+00
  1.43409501E+00  1.47053961E+00  1.61631801E+00  1.27009431E+00  1.27009431E+00
%FLAG ATOMIC_NUMBER                                                             
%FORMAT(10I8)                                                                   
       8       6       8       6       6       6       6       8       1       8
       1       8       1       6       8       1       6       8       6       6
       6       6       6       8       1       8       1       8       1       8
       1       1       1       1       1       1       1       1       1       1
       1       1       1       1       1
%FLAG MASS                                                                      
%FORMAT(5E16.8)                                                                 
  1.60000000E+01  1.20100000E+01  1.60000000E+01  1.20100000E+01  1.20100000E+01
  1.20100000E+01  1.20100000E+01  1.60000000E+01  1.00800000E+00  1.60000000E+01
  1.00800000E+00  1.60000000E+01  1.00800000E+00  1.20100000E+01  1.60000000E+01
  1.00800000E+00  1.20100000E+01  1.60000000E+01  1.20100000E+01  1.20100000E+01
  1.20100000E+01  1.20100000E+01  1.20100000E+01  1.60000000E+01  1.00800000E+00
  1.60000000E+01  1.00800000E+00  1.60000000E+01  1.00800000E+00  1.60000000E+01
  1.00800000E+00  1.00800000E+00  1.00800000E+00  1.00800000E+00  1.00800000E+00
  1.00800000E+00  1.00800000E+00  1.00800000E+00  1.00800000E+00  1.00800000E+00
  1.00800000E+00  1.00800000E+00  1.00800000E+00  1.00800000E+00  1.00800000E+00
%FLAG ATOM_TYPE_INDEX                                                           
%FORMAT(10I8)                                                                   
       1       2       1       2       2       2       2       3       4       3
       4       3       4       2       3       4       2       1       2       2
       2       2       2       3       4       3       4       3       4       3
       4       5       5       5       5       5       5       5       6       5
       5       5       5       5       5
%FLAG NUMBER_EXCLUDED_ATOMS                                                     
%FORMAT(10I8)                                                                   
      19      20      17      14      13      13       7       4       2       5
       1       4       1       6       3       2      13      14      15      15
      13       9       7       4       2       5       1       5       1       4
       1       3       1       1       1       1       1       1       1       3
       1       1       1       1       1
%FLAG NONBONDED_PARM_INDEX                                                      
%FORMAT(10I8)                                                                   
       1       2       4       7      11      16       2       3       5       8
      12      17       4       5       6       9      13      18       7       8
       9      10      14      19      11      12      13      14      15      20
      16      17      18      19      20      21
%FLAG RESIDUE_LABEL                                                             
%FORMAT(20a4)                                                                   
UNL 
%FLAG RESIDUE_POINTER                                                           
%FORMAT(10I8)                                                                   
       1
%FLAG BOND_FORCE_CONSTANT                                                       
%FORMAT(5E16.8)                                                                 
  2.79780000E+02  2.75610000E+02  2.27640000E+02  2.20100000E+02  3.43780000E+02
  2.89690000E+02  2.85150000E+02  3.44220000E+02  5.35510000E+02  2.26810000E+02
  3.41880000E+02  2.23800000E+02  3.42020000E+02  2.85250000E+02
%FLAG BOND_EQUIL_VALUE                                                          
%FORMAT(5E16.8)                                                                 
  1.43000000E+00  1.43460000E+00  1.53720000E+00  1.54830000E+00  1.09720000E+00
  1.41940000E+00  1.42420000E+00  1.09690000E+00  9.72500000E-01  1.53840000E+00
  1.09850000E+00  1.54280000E+00  1.09840000E+00  1.42410000E+00
%FLAG ANGLE_FORCE_CONSTANT                                                      
%FORMAT(5E16.8)                                                                 
  7.64200000E+01  9.75300000E+01  5.63300000E+01  7.67500000E+01  7.74300000E+01
  9.79400000E+01  8.74900000E+01  7.66700000E+01  4.32800000E+01  6.18400000E+01
  7.58300000E+01  4.26500000E+01  8.96100000E+01  5.64400000E+01  5.93300000E+01
  6.54000000E+01  4.33100000E+01  6.51300000E+01  5.62900000E+01  5.64700000E+01
  6.01800000E+01  7.65600000E+01  4.32800000E+01  8.82800000E+01  7.74500000E+01
  5.66800000E+01  7.59500000E+01  4.31900000E+01  5.99900000E+01  6.52300000E+01
  4.31200000E+01  4.33000000E+01  5.63900000E+01  3.56400000E+01
%FLAG ANGLE_EQUIL_VALUE                                                         
%FORMAT(5E16.8)                                                                 
  1.92143380E+00  1.91113635E+00  1.91008915E+00  1.90188610E+00  1.85249326E+00
  1.88303654E+00  2.00712950E+00  1.91724501E+00  1.90904195E+00  1.81217614E+00
  1.94813735E+00  1.94028336E+00  1.90694756E+00  1.89298492E+00  1.98269488E+00
  1.87047016E+00  1.90659849E+00  1.87430989E+00  1.92649525E+00  1.92457539E+00
  1.93836350E+00  1.92073567E+00  1.90555129E+00  1.97745889E+00  1.86453604E+00
  1.88635266E+00  1.94517029E+00  1.90467863E+00  1.94482122E+00  1.86872483E+00
  1.91951393E+00  1.89455572E+00  1.91916487E+00  1.89455572E+00
%FLAG DIHEDRAL_FORCE_CONSTANT                                                   
%FORMAT(5E16.8)                                                                 
  1.55555556E-01  6.70000000E-01  7.30000000E-01  1.07000000E+00  2.50000000E-01
  0.00000000E+00  8.80000000E-01  1.49000000E+00  3.00000000E-02  5.90000000E-01
  1.26000000E+00  7.90000000E-01  4.60000000E-01  8.50000000E-01  8.50000000E-01
  2.11000000E+00  1.00000000E+00  1.70000000E-01  3.83333333E-01  6.00000000E-02
  5.20000000E-01  1.80000000E-01  8.00000000E-02  7.50000000E-01  3.37000000E-01
  5.82000000E+00  0.00000000E+00  1.23000000E-01  1.00000000E+00  1.44000000E+00
  3.50000000E-01  1.38000000E+00  1.16000000E+00
%FLAG DIHEDRAL_PERIODICITY                                                      
%FORMAT(5E16.8)                                                                 
  3.00000000E+00  1.00000000E+00  2.00000000E+00  3.00000000E+00  1.00000000E+00
  3.00000000E+00  1.00000000E+00  2.00000000E+00  3.00000000E+00  1.00000000E+00
  2.00000000E+00  3.00000000E+00  1.00000000E+00  2.00000000E+00  3.00000000E+00
  1.00000000E+00  2.00000000E+00  3.00000000E+00  3.00000000E+00  3.00000000E+00
  3.00000000E+00  3.00000000E+00  2.00000000E+00  3.00000000E+00  3.00000000E+00
  1.00000000E+00  2.00000000E+00  3.00000000E+00  1.00000000E+00  3.00000000E+00
  1.00000000E+00  2.00000000E+00  3.00000000E+00
%FLAG DIHEDRAL_PHASE                                                            
%FORMAT(5E16.8)                                                                 
  0.00000000E+00  3.14159400E+00  3.14159400E+00  0.00000000E+00  0.00000000E+00
  0.00000000E+00  3.14159400E+00  0.00000000E+00  0.00000000E+00  0.00000000E+00
  0.00000000E+00  0.00000000E+00  3.14159400E+00  0.00000000E+00  0.00000000E+00
  3.14159400E+00  3.14159400E+00  3.14159400E+00  0.00000000E+00  0.00000000E+00
  0.00000000E+00  0.00000000E+00  0.00000000E+00  0.00000000E+00  0.00000000E+00
  0.00000000E+00  0.00000000E+00  0.00000000E+00  0.00000000E+00  0.00000000E+00
  3.14159400E+00  0.00000000E+00  0.00000000E+00
%FLAG SCEE_SCALE_FACTOR                                                         
%FORMAT(5E16.8)                                                                 
  1.20000000E+00  1.20000000E+00  1.20000000E+00  1.20000000E+00  1.20000000E+00
  1.20000000E+00  1.20000000E+00  1.20000000E+00  1.20000000E+00  1.20000000E+00
  1.20000000E+00  1.20000000E+00  1.20000000E+00  1.20000000E+00  1.20000000E+00
  1.20000000E+00  1.20000000E+00  1.20000000E+00  1.20000000E+00  1.20000000E+00
  1.20000000E+00  1.20000000E+00  1.20000000E+00  1.20000000E+00  1.20000000E+00
  1.20000000E+00  1.20000000E+00  1.20000000E+00  1.20000000E+00  1.20000000E+00
  1.20000000E+00  1.20000000E+00  1.20000000E+00
%FLAG SCNB_SCALE_FACTOR                                                         
%FORMAT(5E16.8)                                                                 
  2.00000000E+00  2.00000000E+00  2.00000000E+00  2.00000000E+00  2.00000000E+00
  2.00000000E+00  2.00000000E+00  2.00000000E+00  2.00000000E+00  2.00000000E+00
  2.00000000E+00  2.00000000E+00  2.00000000E+00  2.00000000E+00  2.00000000E+00
  2.00000000E+00  2.00000000E+00  2.00000000E+00  2.00000000E+00  2.00000000E+00
  2.00000000E+00  2.00000000E+00  2.00000000E+00  2.00000000E+00  2.00000000E+00
  2.00000000E+00  2.00000000E+00  2.00000000E+00  2.00000000E+00  2.00000000E+00
  2.00000000E+00  2.00000000E+00  2.00000000E+00
%FLAG SOLTY                                                                     
%FORMAT(5E16.8)                                                                 
  0.00000000E+00  0.00000000E+00  0.00000000E+00  0.00000000E+00  0.00000000E+00
  0.00000000E+00  0.00000000E+00  0.00000000E+00
%FLAG LENNARD_JONES_ACOEF                                                       
%FORMAT(5E16.8)                                                                 
  2.83662575E+05  5.42502534E+05  1.02073671E+06  3.78207390E+05  7.18991463E+05
  5.03152404E+05  1.16469347E+02  3.03553352E+02  1.74176419E+02  1.10360882E-05
  3.44374471E+04  6.97998263E+04  4.69084694E+04  4.36660257E+00  3.39005767E+03
  2.33261683E+04  4.80619274E+04  3.19666529E+04  2.07292270E+00  2.16218723E+03
  1.35510742E+03
%FLAG LENNARD_JONES_BCOEF                                                       
%FORMAT(5E16.8)                                                                 
  2.87011518E+02  4.38146883E+02  6.63431737E+02  3.52573684E+02  5.36620538E+02
  4.32634597E+02  2.93355636E+00  5.22789272E+00  3.81654050E+00  4.55498033E-04
  7.31636661E+01  1.14981426E+02  9.08431526E+01  4.15568027E-01  1.67944276E+01
  6.02145835E+01  9.54115851E+01  7.49920368E+01  2.86326700E-01  1.34124560E+01
  1.06181419E+01
%FLAG BONDS_INC_HYDROGEN                                                        
%FORMAT(10I8)                                                                   
       9      93       5      12      96       5      15      99       5      18
     102       8      18     105       8      21      24       9      27      30
       9      33      36       9      39     108       8      39     111       8
      42      45       9      48     114      11      54     117      13      57
     120      13      60     123      13      63     126      13      66     129
       8      66     132       8      69      72       9      75      78       9
      81      84       9      87      90       9
%FLAG BONDS_WITHOUT_HYDROGEN                                                    
%FORMAT(10I8)                                                                   
       0      48       1       0       3       2       3      39       3       3
      15       4       3       6       2       6       9       2       9      12
       4       9      18       3      12      15       4      12      27       6
      15      33       6      18      21       7      39      42       7      48
      63      10      48      51       1      51      54       1      54      57
      10      54      66      12      57      60      10      57      75      14
      60      81      14      60      63      10      63      87      14      66
      69       7
%FLAG ANGLES_INC_HYDROGEN                                                       
%FORMAT(10I8)                                                                   
       0      48     114       3       3      39     108       9       3      39
     111       9       3      15      99      12       6       9      93      14
       9      12      96      12       9      18     102       9       9      18
     105       9      12       9      93      12      12      15      99      12
      12      27      30      16      15      12      96      12      15      33
      36      16      18       9      93      17      18      21      24      18
      21      18     102      19      21      18     105      19      27      12
      96      20      33      15      99      20      39      42      45      18
      42      39     108      19      42      39     111      19      48      63
     126      23      51      48     114       3      51      54     117      26
      54      57     120      23      54      66     129      28      54      66
     132      28      57      54     117      23      57      60     123      23
      57      75      78      30      60      57     120      23      60      81
      84      30      60      63     126      23      63      48     114      31
      63      60     123      23      63      87      90      30      66      54
     117      32      66      69      72      18      69      66     129      19
      69      66     132      19      75      57     120      33      81      60
     123      33      87      63     126      33     102      18     105      34
     108      39     111      34     129      66     132      34
%FLAG ANGLES_WITHOUT_HYDROGEN                                                   
%FORMAT(10I8)                                                                   
       0      48      63       1       0      48      51       2       0       3
      39       4       0       3      15       5       0       3       6       6
       3       0      48       7       3      39      42       8       3      15
      12      10       3      15      33      11       3       6       9      13
       6       3      39       4       6       3      15       5       6       9
      12       5       6       9      18       4       9      12      15      10
       9      12      27      11       9      18      21       8      12       9
      18      15      12      15      33      11      15       3      39      15
      15      12      27      11      48      63      60      21      48      63
      87      22      48      51      54      24      51      48      63       1
      51      54      57       1      51      54      66      25      54      57
      60      21      54      57      75      22      54      66      69      27
      57      54      66      29      57      60      81      22      57      60
      63      21      60      57      75      22      60      63      87      22
      63      60      81      22
%FLAG DIHEDRALS_INC_HYDROGEN                                                    
%FORMAT(10I8)                                                                   
       0      48      63     126       5       0      48     -63     126       6
       0       3      39     108       5       0       3     -39     108       6
       0       3      39     111       5       0       3     -39     111       6
       0       3      15      99       5       0       3     -15      99       6
       3       0      48     114      19       3      39      42      45      20
       3      15      12      96       1       3      15      33      36      20
       3       6       9      93      25       6       3      39     108       5
       6       3     -39     108       6       6       3      39     111       5
       6       3     -39     111       6       6       3      15      99       5
       6       3     -15      99       6       6       9      12      96       5
       6       9     -12      96       6       6       9      18     102       5
       6       9     -18     102       6       6       9      18     105       5
       6       9     -18     105       6       9      12      15      99       1
       9      12      27      30      20       9      18      21      24      20
      12       9      18     102       1      12       9      18     105       1
      12      15      33      36      20      15       3      39     108       1
      15       3      39     111       1      15      12       9      93       1
      15      12      27      30      20      18       9      12      96       1
      21      18       9      93       5      21      18      -9      93       6
      24      21      18     102      28      24      21      18     105      28
      27      12       9      93       5      27      12      -9      93       6
      27      12      15      99       5      27      12     -15      99       6
      30      27      12      96      28      33      15      12      96       5
      33      15     -12      96       6      36      33      15      99      28
      39       3      15      99       1      45      42      39     108      28
      45      42      39     111      28      48      63      60     123       1
      48      63      87      90      20      48      51      54     117      25
      51      48      63     126       5      51      48     -63     126       6
      51      54      57     120       5      51      54     -57     120       6
      51      54      66     129       5      51      54     -66     129       6
      51      54      66     132       5      51      54     -66     132       6
      54      51      48     114      19      54      57      60     123       1
      54      57      75      78      20      54      66      69      72      20
      57      54      66     129       1      57      54      66     132       1
      57      60      81      84      20      57      60      63     126       1
      60      57      54     117       1      60      57      75      78      20
      60      63      48     114       1      60      63      87      90      20
      63      60      57     120       1      63      60      81      84      20
      66      54      57     120       1      69      66      54     117       5
      69      66     -54     117       6      72      69      66     129      28
      72      69      66     132      28      75      57      54     117       5
      75      57     -54     117       6      75      57      60     123       5
      75      57     -60     123       6      78      75      57     120      28
      81      60      57     120       5      81      60     -57     120       6
      81      60      63     126       5      81      60     -63     126       6
      84      81      60     123      28      87      63      48     114       1
      87      63      60     123       5      87      63     -60     123       6
      90      87      63     126      28      93       9      12      96       1
      93       9      18     102       1      93       9      18     105       1
      96      12      15      99       1     114      48      63     126       1
     117      54      57     120       1     117      54      66     129       1
     117      54      66     132       1     120      57      60     123       1
     123      60      63     126       1
%FLAG DIHEDRALS_WITHOUT_HYDROGEN                                                
%FORMAT(10I8)                                                                   
       0      48      63      60       1       0      48      63      87       2
       0      48     -63      87       3       0      48     -63      87       4
       0      48      51      54       7       0      48     -51      54       8
       0      48     -51      54       9       0       3      39      42      10
       0       3     -39      42      11       0       3     -39      42      12
       0       3      15      12       1       0       3      15      33      10
       0       3     -15      33      11       0       3     -15      33      12
       0       3       6       9      13       0       3      -6       9      14
       0       3      -6       9      15       3       0      48      63      16
       3       0     -48      63      17       3       0     -48      63      18
       3       0      48      51      13       3       0     -48      51      14
       3       0     -48      51      15       3      15     -12       9      21
       3      15      12      27      22       3       6      -9      12       7
       3       6      -9      12      23       3       6      -9      12      24
       3       6       9      18       7       3       6      -9      18      23
       3       6      -9      18      24      48       0       3       6      26
      48       0      -3       6      27      48       0      -3       6       6
       6       3      39      42      10       6       3     -39      42      11
       6       3     -39      42      12       6       3     -15      12       1
       6       3      15      33      10       6       3     -15      33      11
       6       3     -15      33      12       6       9     -12      15       1
       6       9      12      27      10       6       9     -12      27      11
       6       9     -12      27      12       6       9      18      21      10
       6       9     -18      21      11       6       9     -18      21      12
       9       6       3      39       7       9       6      -3      39      23
       9       6      -3      39      24       9       6      -3      15       7
       9       6      -3      15      23       9       6      -3      15      24
       9      12      15      33      22      12       9      18      21      22
      12      15       3      39      21      48       0       3      15       7
      48       0      -3      15      23      48       0      -3      15      24
      15       3      39      42      22      15      12       9      18      21
      18       9      12      27      22      27      12      15      33      29
      27      12     -15      33      30      33      15       3      39      22
      48       0       3      39       7      48       0      -3      39      23
      48       0      -3      39      24      48      63      60      57      21
      48      63      60      81      22      48      51     -54      57      31
      48      51     -54      57      32      48      51     -54      57      33
      48      51      54      66       7      48      51     -54      66      23
      48      51     -54      66      24      51      48      63      60       1
      51      48      63      87       2      51      48     -63      87       3
      51      48     -63      87       4      51      54     -57      60       1
      51      54      57      75       2      51      54     -57      75       3
      51      54     -57      75       4      51      54      66      69       2
      51      54     -66      69       3      51      54     -66      69       4
      54      51      48      63      31      54      51     -48      63      32
      54      51     -48      63      33      54      57      60      81      22
      54      57     -60      63      21      57      54      66      69      22
      57      60      63      87      22      60      57      54      66      21
      63      60      57      75      22      66      54      57      75      22
      75      57      60      81      29      75      57     -60      81      30
      81      60      63      87      29      81      60     -63      87      30
%FLAG EXCLUDED_ATOMS_LIST                                                       
%FORMAT(10I8)                                                                   
       2       3       4       5       6      12      14      15      17      18
      19      21      22      30      34      37      38      39      43       3
       4       5       6       7      10      12      13      14      15      16
      17      18      22      32      33      34      37      38      39       4
       5       6       7       8      10      12      14      15      17      32
      33      34      35      36      37      38       5       6       7       8
       9      10      11      12      14      32      33      34      35      36
       6       7       8      10      11      12      13      14      32      33
      34      35      36       7      10      11      12      13      14      15
      17      32      33      34      37      38       8       9      10      32
      33      35      36       9      32      35      36      35      36      11
      12      32      33      34      33      13      14      33      34      34
      15      16      17      34      37      38      16      37      38      37
      38      18      19      20      21      22      23      28      30      31
      39      40      42      43      19      20      21      22      23      24
      26      30      39      40      41      43      44      45      20      21
      22      23      24      25      26      27      28      39      40      41
      42      44      45      21      22      23      24      26      27      28
      29      30      40      41      42      43      44      45      22      23
      26      27      28      29      30      31      39      40      41      42
      43      26      28      29      30      31      39      41      42      43
      24      25      26      40      41      44      45      25      40      44
      45      44      45      27      28      40      41      42      41      29
      30      41      42      43      42      31      39      42      43      43
      33      35      36      34       0      36       0      38       0      43
      41      44      45      42      43       0      45       0
%FLAG HBOND_ACOEF                                                               
%FORMAT(5E16.8)                                                                 

%FLAG HBOND_BCOEF                                                               
%FORMAT(5E16.8)                                                                 

%FLAG HBCUT                                                                     
%FORMAT(5E16.8)                                                                 

%FLAG AMBER_ATOM_TYPE                                                           
%FORMAT(20a4)                                                                   
os  c5  os  c5  c5  c5  c3  oh  ho  oh  ho  oh  ho  c3  oh  ho  c6  os  c6  c6  
c6  c6  c3  oh  ho  oh  ho  oh  ho  oh  ho  h1  h1  h1  h1  h1  h1  h1  h2  h1  
h1  h1  h1  h1  h1  
%FLAG TREE_CHAIN_CLASSIFICATION                                                 
%FORMAT(20a4)                                                                   
BLA BLA BLA BLA BLA BLA BLA BLA BLA BLA BLA BLA BLA BLA BLA BLA BLA BLA BLA BLA 
BLA BLA BLA BLA BLA BLA BLA BLA BLA BLA BLA BLA BLA BLA BLA BLA BLA BLA BLA BLA 
BLA BLA BLA BLA BLA 
%FLAG JOIN_ARRAY                                                                
%FORMAT(10I8)                                                                   
       0       0       0       0       0       0       0       0       0       0
       0       0       0       0       0       0       0       0       0       0
       0       0       0       0       0       0       0       0       0       0
       0       0       0       0       0       0       0       0       0       0
       0       0       0       0       0
%FLAG IROTAT                                                                    
%FORMAT(10I8)                                                                   
       0       0       0       0       0       0       0       0       0       0
       0       0       0       0       0       0       0       0       0       0
       0       0       0       0       0       0       0       0       0       0
       0       0       0       0       0       0       0       0       0       0
       0       0       0       0       0
%FLAG RADIUS_SET                                                                
%FORMAT(1a80)                                                                   
modified Bondi radii (mbondi)                                                   
%FLAG RADII                                                                     
%FORMAT(5E16.8)                                                                 
  1.50000000E+00  1.70000000E+00  1.50000000E+00  1.70000000E+00  1.70000000E+00
  1.70000000E+00  1.70000000E+00  1.50000000E+00  8.00000000E-01  1.50000000E+00
  8.00000000E-01  1.50000000E+00  8.00000000E-01  1.70000000E+00  1.50000000E+00
  8.00000000E-01  1.50000000E+00  1.50000000E+00  1.50000000E+00  1.50000000E+00
  1.50000000E+00  1.50000000E+00  1.70000000E+00  1.50000000E+00  8.00000000E-01
  1.50000000E+00  8.00000000E-01  1.50000000E+00  8.00000000E-01  1.50000000E+00
  8.00000000E-01  1.30000000E+00  1.30000000E+00  1.30000000E+00  1.30000000E+00
  1.30000000E+00  1.30000000E+00  1.30000000E+00  1.30000000E+00  1.30000000E+00
  1.30000000E+00  1.30000000E+00  1.30000000E+00  1.30000000E+00  1.30000000E+00
%FLAG SCREEN                                                                    
%FORMAT(5E16.8)                                                                 
  8.50000000E-01  7.20000000E-01  8.50000000E-01  7.20000000E-01  7.20000000E-01
  7.20000000E-01  7.20000000E-01  8.50000000E-01  8.50000000E-01  8.50000000E-01
  8.50000000E-01  8.50000000E-01  8.50000000E-01  7.20000000E-01  8.50000000E-01
  8.50000000E-01  8.00000000E-01  8.50000000E-01  8.00000000E-01  8.00000000E-01
  8.00000000E-01  8.00000000E-01  7.20000000E-01  8.50000000E-01  8.50000000E-01
  8.50000000E-01  8.50000000E-01  8.50000000E-01  8.50000000E-01  8.50000000E-01
  8.50000000E-01  8.50000000E-01  8.50000000E-01  8.50000000E-01  8.50000000E-01
  8.50000000E-01  8.50000000E-01  8.50000000E-01  8.50000000E-01  8.50000000E-01
  8.50000000E-01  8.50000000E-01  8.50000000E-01  8.50000000E-01  8.50000000E-01
%FLAG IPOL                                                                      
%FORMAT(1I8)                                                                    
       0
