Results/Site1/HOLO/ENB/ENB-Site
   102
  13.0970000  -3.7900000   3.7330000   9.7850000  -3.3310000  -0.2170000
  12.3660000   0.4900000   0.8270000  13.1240000  -3.7460000   1.1420000
  14.7370000  -1.3870000   1.8530000   9.6770000  -0.6580000  -2.0480000
  11.3430000  -2.3040000   3.9180000  10.6910000  -3.4300000  -2.3320000
  12.1240000   2.7250000   0.3570000  11.3490000  -5.1870000   0.7950000
  13.4240000  -0.4150000   3.5010000   9.8330000  -0.1460000   0.2150000
  11.4550000  -4.9980000  -0.6670000  13.6200000  -1.5830000   4.3840000
  10.2560000   1.2460000  -0.0460000  12.2510000  -4.7830000   3.1130000
   8.8210000  -2.3120000  -0.5330000  13.7210000   0.6990000   1.2710000
  12.2800000  -4.5210000   1.6050000  14.0130000  -0.4580000   2.2250000
   9.4900000  -0.9710000  -0.8690000  12.5330000  -2.5750000   4.0030000
  10.6200000  -3.8230000  -1.1730000  11.6730000   1.5860000   0.4100000
  10.2580000  -6.0260000   1.3000000  12.6030000   0.6920000   4.0020000
   9.6220000  -0.5380000   1.6100000  12.8570000  -6.1410000   3.4350000
  14.2560000  -5.9800000   4.0300000  11.9570000  -6.9220000   4.3920000
  13.5770000  -1.3040000   5.8810000  13.6440000  -2.6090000   6.6720000
  14.7160000  -0.3720000   6.2870000  11.1240000  -6.2510000  -1.4760000
  12.3130000  -6.6600000  -2.3460000   9.8830000  -6.0280000  -2.3380000
  14.6430000   0.6740000   0.0550000  13.9570000  -0.0120000  -1.1270000
  15.0750000   2.0880000  -0.3250000   7.8430000  -2.7720000  -1.6140000
   6.8190000  -1.6780000  -1.9130000   7.1420000  -4.0620000  -1.1920000
   9.2540000   2.2490000   0.5300000   9.8380000   2.9410000   1.7580000
   8.8570000   3.2730000  -0.5290000  12.4900000  -4.7760000  -0.8260000
  14.6140000  -1.9480000   4.2310000  10.2720000   1.3260000  -1.1130000
  11.2390000  -4.7490000   3.4600000   8.2390000  -2.1420000   0.3490000
  13.8690000   1.6380000   1.7620000   9.6960000  -6.4140000   0.4760000
   9.6170000  -5.4390000   1.9240000  10.6650000  -6.8360000   1.8680000
  12.5500000   1.4610000   3.2600000  13.0430000   1.0870000   4.8940000
  11.6170000   0.3360000   4.2170000   9.3210000  -1.5640000   1.6510000
   8.8580000   0.0750000   2.0410000  10.5330000  -0.4120000   2.1580000
  12.9390000  -6.6940000   2.5220000  14.1930000  -5.4290000   4.9450000
  14.8790000  -5.4530000   3.3380000  14.6750000  -6.9460000   4.2240000
  11.8630000  -6.3840000   5.3120000  12.3880000  -7.8830000   4.5830000
  10.9900000  -7.0460000   3.9510000  12.6500000  -0.8200000   6.1060000
  14.5660000  -3.1080000   6.4590000  12.8250000  -3.2380000   6.3920000
  13.5880000  -2.3950000   7.7190000  15.6540000  -0.8390000   6.0690000
  14.6540000  -0.1690000   7.3360000  14.6390000   0.5450000   5.7410000
  10.9170000  -7.0450000  -0.7890000  12.5340000  -5.8760000  -3.0400000
  12.0720000  -7.5530000  -2.8830000  13.1660000  -6.8370000  -1.7240000
  10.0690000  -5.2360000  -3.0330000   9.0560000  -5.7660000  -1.7120000
   9.6550000  -6.9260000  -2.8730000  15.5170000   0.1130000   0.3110000
  13.0790000   0.5360000  -1.3970000  13.6840000  -1.0090000  -0.8510000
  14.6280000  -0.0430000  -1.9600000  14.2130000   2.6670000  -0.5850000
  15.7410000   2.0450000  -1.1610000  15.5740000   2.5440000   0.5050000
   8.3980000  -2.9680000  -2.5080000   6.2530000  -1.4680000  -1.0300000
   6.1600000  -2.0090000  -2.6880000   7.3270000  -0.7910000  -2.2300000
   6.5800000  -3.8870000  -0.2980000   7.8730000  -4.8220000  -1.0110000
   6.4820000  -4.3800000  -1.9710000   8.3750000   1.7180000   0.8310000
  10.7200000   3.4790000   1.4790000  10.0860000   2.2080000   2.4960000
   9.1170000   3.6220000   2.1600000   9.7240000   3.8160000  -0.8430000
   8.1410000   3.9530000  -0.1170000   8.4280000   2.7690000  -1.3690000
