%VERSION  VERSION_STAMP = V0001.000  DATE = 09/04/25  04:45:22                  
%FLAG TITLE                                                                     
%FORMAT(20a4)                                                                   
Results/Site1/HOLO/ENB/ENB-Site                                                 
%FLAG POINTERS                                                                  
%FORMAT(10I8)                                                                   
     102       7      57      45     126      66     186     171       0       0
     570       1      45      66     171       9      21      39       7       0
       0       0       0       0       0       0       0       0     102       0
       0
%FLAG ATOM_NAME                                                                 
%FORMAT(20a4)                                                                   
O   O1  O2  O3  O4  O5  O6  O7  O8  N   N1  N2  C   C1  C2  C3  C4  C5  C6  C7  
C8  C9  C10 C11 C12 C13 C14 C15 C16 C17 C18 C19 C20 C21 C22 C23 C24 C25 C26 C27 
C28 C29 C30 C31 C32 H   H1  H2  H3  H4  H5  H6  H7  H8  H9  H10 H11 H12 H13 H14 
H15 H16 H17 H18 H19 H20 H21 H22 H23 H24 H25 H26 H27 H28 H29 H30 H31 H32 H33 H34 
H35 H36 H37 H38 H39 H40 H41 H42 H43 H44 H45 H46 H47 H48 H49 H50 H51 H52 H53 H54 
H55 H56 
%FLAG CHARGE                                                                    
%FORMAT(5E16.8)                                                                 
 -7.68798837E+00 -7.68798837E+00 -7.68798837E+00 -1.04432001E+01 -1.04432001E+01
 -1.04432001E+01 -9.85219627E+00 -9.85219627E+00 -9.85219627E+00 -8.48187931E+00
 -8.48187931E+00 -8.48187931E+00  1.15469248E+00  1.15469248E+00  1.15469248E+00
  1.66611956E+00  1.66611956E+00  1.66611956E+00  1.18159407E+01  1.18159407E+01
  1.18159407E+01  1.13360928E+01  1.13360928E+01  1.13360928E+01  1.31140426E+00
  1.31140426E+00  1.31140426E+00 -1.31260694E+00 -1.72687270E+00 -1.72687270E+00
 -1.19720511E+00 -1.86960798E+00 -1.86960798E+00 -1.19720511E+00 -1.86960798E+00
 -1.86960798E+00 -1.31260694E+00 -1.72687270E+00 -1.72687270E+00 -1.31260694E+00
 -1.72687270E+00 -1.72687270E+00 -1.19720511E+00 -1.86960798E+00 -1.86960798E+00
  2.36343231E+00  2.36343231E+00  2.36343231E+00  1.65883064E+00  1.65883064E+00
  1.65883064E+00  8.99580284E-01  8.99580284E-01  8.99580284E-01  8.99580284E-01
  8.99580284E-01  8.99580284E-01  8.99580284E-01  8.99580284E-01  8.99580284E-01
  1.45838534E+00  7.79112659E-01  7.79112659E-01  7.79112659E-01  7.79112659E-01
  7.79112659E-01  7.79112659E-01  1.12431591E+00  8.19602609E-01  8.19602609E-01
  8.19602609E-01  8.19602609E-01  8.19602609E-01  8.19602609E-01  1.12431591E+00
  8.19602609E-01  8.19602609E-01  8.19602609E-01  8.19602609E-01  8.19602609E-01
  8.19602609E-01  1.45838534E+00  7.79112659E-01  7.79112659E-01  7.79112659E-01
  7.79112659E-01  7.79112659E-01  7.79112659E-01  1.45838534E+00  7.79112659E-01
  7.79112659E-01  7.79112659E-01  7.79112659E-01  7.79112659E-01  7.79112659E-01
  1.12431591E+00  8.19602609E-01  8.19602609E-01  8.19602609E-01  8.19602609E-01
  8.19602609E-01  8.19602609E-01
%FLAG ATOMIC_NUMBER                                                             
%FORMAT(10I8)                                                                   
       8       8       8       8       8       8       8       8       8       7
       7       7       6       6       6       6       6       6       6       6
       6       6       6       6       6       6       6       6       6       6
       6       6       6       6       6       6       6       6       6       6
       6       6       6       6       6       1       1       1       1       1
       1       1       1       1       1       1       1       1       1       1
       1       1       1       1       1       1       1       1       1       1
       1       1       1       1       1       1       1       1       1       1
       1       1       1       1       1       1       1       1       1       1
       1       1       1       1       1       1       1       1       1       1
       1       1
%FLAG MASS                                                                      
%FORMAT(5E16.8)                                                                 
  1.60000000E+01  1.60000000E+01  1.60000000E+01  1.60000000E+01  1.60000000E+01
  1.60000000E+01  1.60000000E+01  1.60000000E+01  1.60000000E+01  1.40100000E+01
  1.40100000E+01  1.40100000E+01  1.20100000E+01  1.20100000E+01  1.20100000E+01
  1.20100000E+01  1.20100000E+01  1.20100000E+01  1.20100000E+01  1.20100000E+01
  1.20100000E+01  1.20100000E+01  1.20100000E+01  1.20100000E+01  1.20100000E+01
  1.20100000E+01  1.20100000E+01  1.20100000E+01  1.20100000E+01  1.20100000E+01
  1.20100000E+01  1.20100000E+01  1.20100000E+01  1.20100000E+01  1.20100000E+01
  1.20100000E+01  1.20100000E+01  1.20100000E+01  1.20100000E+01  1.20100000E+01
  1.20100000E+01  1.20100000E+01  1.20100000E+01  1.20100000E+01  1.20100000E+01
  1.00800000E+00  1.00800000E+00  1.00800000E+00  1.00800000E+00  1.00800000E+00
  1.00800000E+00  1.00800000E+00  1.00800000E+00  1.00800000E+00  1.00800000E+00
  1.00800000E+00  1.00800000E+00  1.00800000E+00  1.00800000E+00  1.00800000E+00
  1.00800000E+00  1.00800000E+00  1.00800000E+00  1.00800000E+00  1.00800000E+00
  1.00800000E+00  1.00800000E+00  1.00800000E+00  1.00800000E+00  1.00800000E+00
  1.00800000E+00  1.00800000E+00  1.00800000E+00  1.00800000E+00  1.00800000E+00
  1.00800000E+00  1.00800000E+00  1.00800000E+00  1.00800000E+00  1.00800000E+00
  1.00800000E+00  1.00800000E+00  1.00800000E+00  1.00800000E+00  1.00800000E+00
  1.00800000E+00  1.00800000E+00  1.00800000E+00  1.00800000E+00  1.00800000E+00
  1.00800000E+00  1.00800000E+00  1.00800000E+00  1.00800000E+00  1.00800000E+00
  1.00800000E+00  1.00800000E+00  1.00800000E+00  1.00800000E+00  1.00800000E+00
  1.00800000E+00  1.00800000E+00
%FLAG ATOM_TYPE_INDEX                                                           
%FORMAT(10I8)                                                                   
       1       1       1       2       2       2       2       2       2       3
       3       3       4       4       4       4       4       4       5       5
       5       5       5       5       4       4       4       4       4       4
       4       4       4       4       4       4       4       4       4       4
       4       4       4       4       4       6       6       6       6       6
       6       6       6       6       6       6       6       6       6       6
       7       7       7       7       7       7       7       7       7       7
       7       7       7       7       7       7       7       7       7       7
       7       7       7       7       7       7       7       7       7       7
       7       7       7       7       7       7       7       7       7       7
       7       7
%FLAG NUMBER_EXCLUDED_ATOMS                                                     
%FORMAT(10I8)                                                                   
      15      15      15       7       7       7       6       6       6      15
      15      15      19      19      19      14      14      14      13      13
      13       8       8       8       5       5       5      10       9       8
      10       9       8      10       9       8      10       9       8      10
       9       8      10       9       8       1       1       1       1       1
       1       2       1       1       2       1       1       2       1       1
       6       2       1       1       2       1       1       6       2       1
       1       2       1       1       6       2       1       1       2       1
       1       6       2       1       1       2       1       1       6       2
       1       1       2       1       1       6       2       1       1       2
       1       1
%FLAG NONBONDED_PARM_INDEX                                                      
%FORMAT(10I8)                                                                   
       1       2       4       7      11      16      22       2       3       5
       8      12      17      23       4       5       6       9      13      18
      24       7       8       9      10      14      19      25      11      12
      13      14      15      20      26      16      17      18      19      20
      21      27      22      23      24      25      26      27      28
%FLAG RESIDUE_LABEL                                                             
%FORMAT(20a4)                                                                   
UNL 
%FLAG RESIDUE_POINTER                                                           
%FORMAT(10I8)                                                                   
       1
%FLAG BOND_FORCE_CONSTANT                                                       
%FORMAT(5E16.8)                                                                 
  2.82270000E+02  3.51310000E+02  5.90600000E+02  2.54460000E+02  3.17460000E+02
  2.28890000E+02  2.34850000E+02  3.44220000E+02  3.45250000E+02
%FLAG BOND_EQUIL_VALUE                                                          
%FORMAT(5E16.8)                                                                 
  1.42730000E+00  1.36210000E+00  1.21900000E+00  1.46430000E+00  1.39670000E+00
  1.53540000E+00  1.52700000E+00  1.09690000E+00  1.09620000E+00
%FLAG ANGLE_FORCE_CONSTANT                                                      
%FORMAT(5E16.8)                                                                 
  7.71000000E+01  7.74400000E+01  5.62000000E+01  1.01260000E+02  7.79700000E+01
  8.66800000E+01  7.64500000E+01  6.49500000E+01  6.53900000E+01  4.80900000E+01
  6.51900000E+01  7.62100000E+01  7.72400000E+01  5.98700000E+01  4.32700000E+01
  8.94300000E+01  6.03600000E+01  4.37400000E+01  4.32800000E+01  3.56400000E+01
  3.58000000E+01
%FLAG ANGLE_EQUIL_VALUE                                                         
%FORMAT(5E16.8)                                                                 
  1.90712209E+00  1.87832415E+00  1.92579712E+00  2.15024656E+00  1.93382564E+00
  2.13925098E+00  2.14501057E+00  1.96838317E+00  1.95372240E+00  1.89822091E+00
  2.04482863E+00  2.03767278E+00  2.07397564E+00  1.96576518E+00  1.91427794E+00
  2.02144121E+00  1.94482122E+00  1.89141412E+00  1.91270715E+00  1.89455572E+00
  1.88024401E+00
%FLAG DIHEDRAL_FORCE_CONSTANT                                                   
%FORMAT(5E16.8)                                                                 
  0.00000000E+00  1.07000000E+00  2.10000000E-01  0.00000000E+00  1.55555556E-01
  2.50000000E-01  0.00000000E+00  2.50000000E+00  6.80000000E-01  2.00000000E-01
  4.40000000E-01  8.00000000E-01  8.00000000E-02  1.40000000E+00  2.70000000E+00
  1.00000000E-01  7.10000000E-01  0.00000000E+00  0.00000000E+00  2.93000000E+00
  1.41000000E+00  5.00000000E-01  1.30000000E-01  1.89000000E+00  3.29000000E+00
  7.50000000E-01  2.26000000E+00  3.00000000E-02  6.50000000E-01  6.40000000E-01
  3.90000000E-01  3.83333333E-01  4.60000000E-01  4.00000000E-02  8.00000000E-01
  3.83000000E-01  1.20000000E-01  1.10000000E+00  1.05000000E+01
%FLAG DIHEDRAL_PERIODICITY                                                      
%FORMAT(5E16.8)                                                                 
  1.00000000E+00  2.00000000E+00  3.00000000E+00  2.00000000E+00  3.00000000E+00
  1.00000000E+00  3.00000000E+00  2.00000000E+00  1.00000000E+00  2.00000000E+00
  3.00000000E+00  1.00000000E+00  3.00000000E+00  1.00000000E+00  2.00000000E+00
  3.00000000E+00  2.00000000E+00  4.00000000E+00  2.00000000E+00  1.00000000E+00
  2.00000000E+00  3.00000000E+00  3.00000000E+00  1.00000000E+00  2.00000000E+00
  3.00000000E+00  1.00000000E+00  3.00000000E+00  4.00000000E+00  1.00000000E+00
  2.00000000E+00  3.00000000E+00  1.00000000E+00  2.00000000E+00  1.00000000E+00
  3.00000000E+00  3.00000000E+00  2.00000000E+00  2.00000000E+00
%FLAG DIHEDRAL_PHASE                                                            
%FORMAT(5E16.8)                                                                 
  3.14159400E+00  3.14159400E+00  3.14159400E+00  3.14159400E+00  0.00000000E+00
  0.00000000E+00  0.00000000E+00  3.14159400E+00  0.00000000E+00  3.14159400E+00
  3.14159400E+00  0.00000000E+00  3.14159400E+00  3.14159400E+00  3.14159400E+00
  0.00000000E+00  3.14159400E+00  3.14159400E+00  0.00000000E+00  0.00000000E+00
  3.14159400E+00  0.00000000E+00  0.00000000E+00  3.14159400E+00  3.14159400E+00
  0.00000000E+00  0.00000000E+00  3.14159400E+00  3.14159400E+00  0.00000000E+00
  3.14159400E+00  0.00000000E+00  3.14159400E+00  0.00000000E+00  3.14159400E+00
  0.00000000E+00  0.00000000E+00  3.14159400E+00  3.14159400E+00
%FLAG SCEE_SCALE_FACTOR                                                         
%FORMAT(5E16.8)                                                                 
  1.20000000E+00  1.20000000E+00  1.20000000E+00  1.20000000E+00  1.20000000E+00
  1.20000000E+00  1.20000000E+00  1.20000000E+00  1.20000000E+00  1.20000000E+00
  1.20000000E+00  1.20000000E+00  1.20000000E+00  1.20000000E+00  1.20000000E+00
  1.20000000E+00  1.20000000E+00  1.20000000E+00  1.20000000E+00  1.20000000E+00
  1.20000000E+00  1.20000000E+00  1.20000000E+00  1.20000000E+00  1.20000000E+00
  1.20000000E+00  1.20000000E+00  1.20000000E+00  1.20000000E+00  1.20000000E+00
  1.20000000E+00  1.20000000E+00  1.20000000E+00  1.20000000E+00  1.20000000E+00
  1.20000000E+00  1.20000000E+00  0.00000000E+00  0.00000000E+00
%FLAG SCNB_SCALE_FACTOR                                                         
%FORMAT(5E16.8)                                                                 
  2.00000000E+00  2.00000000E+00  2.00000000E+00  2.00000000E+00  2.00000000E+00
  2.00000000E+00  2.00000000E+00  2.00000000E+00  2.00000000E+00  2.00000000E+00
  2.00000000E+00  2.00000000E+00  2.00000000E+00  2.00000000E+00  2.00000000E+00
  2.00000000E+00  2.00000000E+00  2.00000000E+00  2.00000000E+00  2.00000000E+00
  2.00000000E+00  2.00000000E+00  2.00000000E+00  2.00000000E+00  2.00000000E+00
  2.00000000E+00  2.00000000E+00  2.00000000E+00  2.00000000E+00  2.00000000E+00
  2.00000000E+00  2.00000000E+00  2.00000000E+00  2.00000000E+00  2.00000000E+00
  2.00000000E+00  2.00000000E+00  0.00000000E+00  0.00000000E+00
%FLAG SOLTY                                                                     
%FORMAT(5E16.8)                                                                 
  0.00000000E+00  0.00000000E+00  0.00000000E+00  0.00000000E+00  0.00000000E+00
  0.00000000E+00  0.00000000E+00
%FLAG LENNARD_JONES_ACOEF                                                       
%FORMAT(5E16.8)                                                                 
  2.83662575E+05  3.27367585E+05  3.76435470E+05  4.46307018E+05  5.15491878E+05
  7.02078680E+05  5.42502534E+05  6.30925504E+05  8.52084164E+05  1.02073671E+06
  4.46121722E+05  5.17507491E+05  7.01106848E+05  8.43969952E+05  6.96551276E+05
  3.44374471E+04  3.86646725E+04  5.45183252E+04  6.97998263E+04  5.63013422E+04
  3.39005767E+03  5.02224902E+04  5.68021765E+04  7.93773615E+04  1.00235148E+05
  8.12662403E+04  5.22955465E+03  7.94617769E+03
%FLAG LENNARD_JONES_BCOEF                                                       
%FORMAT(5E16.8)                                                                 
  2.87011518E+02  3.67361018E+02  4.69350655E+02  4.41089616E+02  5.64804067E+02
  6.77820248E+02  4.38146883E+02  5.62969425E+02  6.72777963E+02  6.63431737E+02
  3.88758656E+02  4.98871431E+02  5.97113873E+02  5.90251928E+02  5.24668528E+02
  7.31636661E+01  9.23664132E+01  1.12788003E+02  1.14981426E+02  1.01040256E+02
  1.67944276E+01  8.83545880E+01  1.11953944E+02  1.36094315E+02  1.37787728E+02
  1.21392023E+02  2.08590256E+01  2.57122925E+01
%FLAG BONDS_INC_HYDROGEN                                                        
%FORMAT(10I8)                                                                   
      36     135       8      39     138       8      42     141       8      45
     144       8      48     147       8      51     150       8      72     153
       8      72     156       8      72     159       8      75     162       8
      75     165       8      75     168       8      78     171       8      78
     174       8      78     177       8      81     180       9      84     183
       9      84     186       9      84     189       9      87     192       9
      87     195       9      87     198       9      90     201       9      93
     204       9      93     207       9      93     210       9      96     213
       9      96     216       9      96     219       9      99     222       9
     102     225       9     102     228       9     102     231       9     105
     234       9     105     237       9     105     240       9     108     243
       9     111     246       9     111     249       9     111     252       9
     114     255       9     114     258       9     114     261       9     117
     264       9     120     267       9     120     270       9     120     273
       9     123     276       9     123     279       9     123     282       9
     126     285       9     129     288       9     129     291       9     129
     294       9     132     297       9     132     300       9     132     303
       9
%FLAG BONDS_WITHOUT_HYDROGEN                                                    
%FORMAT(10I8)                                                                   
       0      45       1       0      63       2       3      66       2       3
      48       1       6      69       2       6      51       1       9      54
       3      12      57       3      15      60       3      18      63       3
      21      66       3      24      69       3      27      36       4      27
      72       4      27      54       5      30      57       5      30      75
       4      30      39       4      33      60       5      33      42       4
      33      78       4      36      99       6      36      66       7      39
      63       7      39      90       6      42      69       7      42     126
       6      45      54       7      45      81       6      48     117       6
      48      60       7      51     108       6      51      57       7      81
      84       6      81      87       6      90      96       6      90      93
       6      99     102       6      99     105       6     108     111       6
     108     114       6     117     120       6     117     123       6     126
     132       6     126     129       6
%FLAG ANGLES_INC_HYDROGEN                                                       
%FORMAT(10I8)                                                                   
       0      45     144       3       3      48     147       3       6      51
     150       3      27      36     135      10      27      72     153      10
      27      72     156      10      27      72     159      10      30      75
     162      10      30      75     165      10      30      75     168      10
      30      39     138      10      33      42     141      10      33      78
     171      10      33      78     174      10      33      78     177      10
      36      99     222      15      39      90     201      15      42     126
     285      15      45      81     180      15      48     117     264      15
      51     108     243      15      54      45     144      18      57      51
     150      18      60      48     147      18      63      39     138      18
      66      36     135      18      69      42     141      18      81      45
     144      19      81      84     183      15      81      84     186      15
      81      84     189      15      81      87     192      15      81      87
     195      15      81      87     198      15      84      81     180      15
      87      81     180      15      90      39     138      19      90      96
     213      15      90      96     216      15      90      96     219      15
      90      93     204      15      90      93     207      15      90      93
     210      15      93      90     201      15      96      90     201      15
      99      36     135      19      99     102     225      15      99     102
     228      15      99     102     231      15      99     105     234      15
      99     105     237      15      99     105     240      15     102      99
     222      15     105      99     222      15     108      51     150      19
     108     111     246      15     108     111     249      15     108     111
     252      15     108     114     255      15     108     114     258      15
     108     114     261      15     111     108     243      15     114     108
     243      15     117      48     147      19     117     120     267      15
     117     120     270      15     117     120     273      15     117     123
     276      15     117     123     279      15     117     123     282      15
     120     117     264      15     123     117     264      15     126      42
     141      19     126     132     297      15     126     132     300      15
     126     132     303      15     126     129     288      15     126     129
     291      15     126     129     294      15     129     126     285      15
     132     126     285      15     153      72     156      20     153      72
     159      20     156      72     159      20     162      75     165      20
     162      75     168      20     165      75     168      20     171      78
     174      20     171      78     177      20     174      78     177      20
     183      84     186      21     183      84     189      21     186      84
     189      21     192      87     195      21     192      87     198      21
     195      87     198      21     204      93     207      21     204      93
     210      21     207      93     210      21     213      96     216      21
     213      96     219      21     216      96     219      21     225     102
     228      21     225     102     231      21     228     102     231      21
     234     105     237      21     234     105     240      21     237     105
     240      21     246     111     249      21     246     111     252      21
     249     111     252      21     255     114     258      21     255     114
     261      21     258     114     261      21     267     120     270      21
     267     120     273      21     270     120     273      21     276     123
     279      21     276     123     282      21     279     123     282      21
     288     129     291      21     288     129     294      21     291     129
     294      21     297     132     300      21     297     132     303      21
     300     132     303      21
%FLAG ANGLES_WITHOUT_HYDROGEN                                                   
%FORMAT(10I8)                                                                   
       0      45      54       1       0      45      81       2       0      63
      18       4       0      63      39       5       3      66      21       4
       3      66      36       5       3      48     117       2       3      48
      60       1       6      69      24       4       6      69      42       5
       6      51     108       2       6      51      57       1       9      54
      27       6       9      54      45       7      12      57      30       6
      12      57      51       7      15      60      33       6      15      60
      48       7      18      63      39       7      21      66      36       7
      24      69      42       7      27      36      99       8      27      36
      66       9      27      54      45      11      30      57      51      11
      30      39      63       9      30      39      90       8      33      60
      48      11      33      42      69       9      33      42     126       8
      36      27      72      12      36      27      54      13      36      99
     102      14      36      99     105      14      39      30      57      13
      39      30      75      12      39      90      96      14      39      90
      93      14      42      33      60      13      42      33      78      12
      42     126     132      14      42     126     129      14      45       0
      63      16      45      81      84      14      45      81      87      14
      48       3      66      16      48     117     120      14      48     117
     123      14      51       6      69      16      51     108     111      14
      51     108     114      14      54      27      72      13      54      45
      81      17      57      30      75      13      57      51     108      17
      60      33      78      13      60      48     117      17      63      39
      90      17      66      36      99      17      69      42     126      17
      84      81      87      14      93      90      96      14     102      99
     105      14     111     108     114      14     120     117     123      14
     129     126     132      14
%FLAG DIHEDRALS_INC_HYDROGEN                                                    
%FORMAT(10I8)                                                                   
       0      45      81     180       6       0      45     -81     180       7
       0      63      39     138       4       3      66      36     135       4
       3      48     117     264       6       3      48    -117     264       7
       6      69      42     141       4       6      51     108     243       6
       6      51    -108     243       7       9      54      45     144      12
       9      54     -45     144      13      12      57      51     150      12
      12      57     -51     150      13      15      60      48     147      12
      15      60     -48     147      13      18      63      39     138      12
      18      63     -39     138      13      21      66      36     135      12
      21      66     -36     135      13      24      69      42     141      12
      24      69     -42     141      13      27      36      99     222       5
      27      54      45     144       4      30      57      51     150       4
      30      39      90     201       5      33      60      48     147       4
      33      42     126     285       5      36      27      72     153      19
      36      27      72     156      19      36      27      72     159      19
      36      99     102     225      23      36      99     102     228      23
      36      99     102     231      23      36      99     105     234      23
      36      99     105     237      23      36      99     105     240      23
      39      30      75     162      19      39      30      75     165      19
      39      30      75     168      19      39      90      96     213      23
      39      90      96     216      23      39      90      96     219      23
      39      90      93     204      23      39      90      93     207      23
      39      90      93     210      23      42      33      78     171      19
      42      33      78     174      19      42      33      78     177      19
      42     126     132     297      23      42     126     132     300      23
      42     126     132     303      23      42     126     129     288      23
      42     126     129     291      23      42     126     129     294      23
      45      81      84     183      23      45      81      84     186      23
      45      81      84     189      23      45      81      87     192      23
      45      81      87     195      23      45      81      87     198      23
      48     117     120     267      23      48     117     120     270      23
      48     117     120     273      23      48     117     123     276      23
      48     117     123     279      23      48     117     123     282      23
      51     108     111     246      23      51     108     111     249      23
      51     108     111     252      23      51     108     114     255      23
      51     108     114     258      23      51     108     114     261      23
      54      27      36     135       4      54      27      72     153       4
      54      27      72     156       4      54      27      72     159       4
      54      45      81     180       5      57      30      75     162       4
      57      30      75     165       4      57      30      75     168       4
      57      30      39     138       4      57      51     108     243       5
      60      33      42     141       4      60      33      78     171       4
      60      33      78     174       4      60      33      78     177       4
      60      48     117     264       5      63       0      45     144      32
      63      39      90     201       5      66       3      48     147      32
      66      36      99     222       5      69       6      51     150      32
      69      42     126     285       5      72      27      36     135      19
      75      30      39     138      19      78      33      42     141      19
      84      81      45     144       5      84      81      87     192      23
      84      81      87     195      23      84      81      87     198      23
      87      81      45     144       5      87      81      84     183      23
      87      81      84     186      23      87      81      84     189      23
      93      90      39     138       5      93      90      96     213      23
      93      90      96     216      23      93      90      96     219      23
      96      90      39     138       5      96      90      93     204      23
      96      90      93     207      23      96      90      93     210      23
     102      99      36     135       5     102      99     105     234      23
     102      99     105     237      23     102      99     105     240      23
     105      99      36     135       5     105      99     102     225      23
     105      99     102     228      23     105      99     102     231      23
     111     108      51     150       5     111     108     114     255      23
     111     108     114     258      23     111     108     114     261      23
     114     108      51     150       5     114     108     111     246      23
     114     108     111     249      23     114     108     111     252      23
     120     117      48     147       5     120     117     123     276      23
     120     117     123     279      23     120     117     123     282      23
     123     117      48     147       5     123     117     120     267      23
     123     117     120     270      23     123     117     120     273      23
     129     126      42     141       5     129     126     132     297      23
     129     126     132     300      23     129     126     132     303      23
     132     126      42     141       5     132     126     129     288      23
     132     126     129     291      23     132     126     129     294      23
     135      36      99     222       5     138      39      90     201       5
     141      42     126     285       5     144      45      81     180       5
     147      48     117     264       5     150      51     108     243       5
     180      81      84     183      37     180      81      84     186      37
     180      81      84     189      37     180      81      87     192      37
     180      81      87     195      37     180      81      87     198      37
     201      90      96     213      37     201      90      96     216      37
     201      90      96     219      37     201      90      93     204      37
     201      90      93     207      37     201      90      93     210      37
     222      99     102     225      37     222      99     102     228      37
     222      99     102     231      37     222      99     105     234      37
     222      99     105     237      37     222      99     105     240      37
     243     108     111     246      37     243     108     111     249      37
     243     108     111     252      37     243     108     114     255      37
     243     108     114     258      37     243     108     114     261      37
     264     117     120     267      37     264     117     120     270      37
     264     117     120     273      37     264     117     123     276      37
     264     117     123     279      37     264     117     123     282      37
     285     126     132     297      37     285     126     132     300      37
     285     126     132     303      37     285     126     129     288      37
     285     126     129     291      37     285     126     129     294      37
%FLAG DIHEDRALS_WITHOUT_HYDROGEN                                                
%FORMAT(10I8)                                                                   
       0      45      54       9       1       0      45     -54       9       2
       0      45     -54       9       3       0      45      54      27       4
       0      45      81      84       5       0      45      81      87       5
       0      63      39      30       4       0      63      39      90       4
       3      66      36      27       4       3      66      36      99       4
       3      48     117     120       5       3      48     117     123       5
       3      48      60      15       1       3      48     -60      15       2
       3      48     -60      15       3       3      48      60      33       4
       6      69      42      33       4       6      69      42     126       4
       6      51     108     111       5       6      51     108     114       5
       6      51      57      12       1       6      51     -57      12       2
       6      51     -57      12       3       6      51      57      30       4
       9      54      27      36       8       9      54      27      72       8
       9      54      45      81       9       9      54     -45      81      10
       9      54     -45      81      11      12      57      30      75       8
      12      57      30      39       8      12      57      51     108       9
      12      57     -51     108      10      12      57     -51     108      11
      15      60      33      42       8      15      60      33      78       8
      15      60      48     117       9      15      60     -48     117      10
      15      60     -48     117      11      45       0      63      18      14
      45       0     -63      18      15      18      63      39      30       4
      18      63      39      90       9      18      63     -39      90      10
      18      63     -39      90      11      21      66       3      48      14
      21      66      -3      48      15      21      66      36      27       4
      21      66      36      99       9      21      66     -36      99      10
      21      66     -36      99      11      24      69       6      51      14
      24      69      -6      51      15      24      69      42      33       4
      24      69      42     126       9      24      69     -42     126      10
      24      69     -42     126      11      27      36      99     102      16
      27      36      99     105      16      27      54      45      81      17
      27      54     -45      81      18      30      57      51     108      17
      30      57     -51     108      18      30      39      90      96      16
      30      39      90      93      16      33      60      48     117      17
      33      60     -48     117      18      33      42     126     132      16
      33      42     126     129      16      36      27      54      45      20
      36      27     -54      45      21      36      27     -54      45      22
      36      66       3      48      24      36      66      -3      48      25
      36      66      -3      48      26      39      30      57      51      20
      39      30     -57      51      21      39      30     -57      51      22
      45       0      63      39      24      45       0     -63      39      25
      45       0     -63      39      26      42      33      60      48      20
      42      33     -60      48      21      42      33     -60      48      22
      42      69       6      51      24      42      69      -6      51      25
      42      69      -6      51      26      45      54      27      72      20
      45      54     -27      72      21      45      54     -27      72      22
      48      60      33      78      20      48      60     -33      78      21
      48      60     -33      78      22      51      57      30      75      20
      51      57     -30      75      21      51      57     -30      75      22
      54      27      36      99      27      54      27     -36      99      28
      54      27     -36      99      29      54      27      36      66      30
      54      27     -36      66      31      63       0      45      54      32
      54      45      81      84      33      54      45     -81      84      34
      54      45     -81      84       7      54      45      81      87      33
      54      45     -81      87      34      54      45     -81      87       7
      57      30      39      63      30      57      30     -39      63      31
      57      30      39      90      27      57      30     -39      90      28
      57      30     -39      90      29      57      51       6      69      32
      57      51     108     111      33      57      51    -108     111      34
      57      51    -108     111       7      57      51     108     114      33
      57      51    -108     114      34      57      51    -108     114       7
      60      33      42      69      30      60      33     -42      69      31
      60      33      42     126      27      60      33     -42     126      28
      60      33     -42     126      29      60      48       3      66      32
      60      48     117     120      33      60      48    -117     120      34
      60      48    -117     120       7      60      48     117     123      33
      60      48    -117     123      34      60      48    -117     123       7
      63       0      45      81      35      63       0     -45      81      36
      63      39      30      75      19      63      39      90      96      33
      63      39     -90      96      34      63      39     -90      96       7
      63      39      90      93      33      63      39     -90      93      34
      63      39     -90      93       7      66       3      48     117      35
      66       3     -48     117      36      66      36      27      72      19
      66      36      99     102      33      66      36     -99     102      34
      66      36     -99     102       7      66      36      99     105      33
      66      36     -99     105      34      66      36     -99     105       7
      69       6      51     108      35      69       6     -51     108      36
      69      42      33      78      19      69      42     126     132      33
      69      42    -126     132      34      69      42    -126     132       7
      69      42     126     129      33      69      42    -126     129      34
      69      42    -126     129       7      72      27      36      99      19
      75      30      39      90      19      78      33      42     126      19
      54      36     -27     -72      38      57      39     -30     -75      38
      60      42     -33     -78      38      45      27     -54      -9      39
      51      30     -57     -12      39      48      33     -60     -15      39
       0      63     -18     -39      38      36      21     -66      -3      38
      42      24     -69      -6      38
%FLAG EXCLUDED_ATOMS_LIST                                                       
%FORMAT(10I8)                                                                   
       4       7      10      11      14      16      19      22      28      29
      30      31      47      49      61       6       8      10      12      13
      17      21      23      34      40      41      42      46      50      89
       5       9      11      12      15      18      20      24      37      38
      39      43      48      51      82      10      13      16      19      25
      28      49      11      14      18      20      26      37      51      12
      15      17      21      27      40      50      11      14      16      22
      31      47      10      13      17      23      34      46      12      15
      18      24      43      48      13      16      19      23      25      28
      34      35      36      46      49      52      53      54      75      14
      18      20      22      26      31      32      33      37      47      51
      55      56      57      68      15      17      21      24      27      40
      43      44      45      48      50      58      59      60      96      16
      17      19      23      25      34      35      36      46      52      53
      54      75      76      77      78      79      80      81      16      18
      20      22      26      31      32      33      47      55      56      57
      68      69      70      71      72      73      74      17      18      21
      24      27      43      44      45      48      58      59      60      96
      97      98      99     100     101     102      19      22      25      28
      29      30      49      61      62      63      64      65      66      67
      21      23      27      40      41      42      50      89      90      91
      92      93      94      95      20      24      26      37      38      39
      51      82      83      84      85      86      87      88      22      23
      25      28      29      30      34      46      49      52      53      54
      61      22      24      26      31      37      38      39      47      51
      55      56      57      82      23      24      27      40      41      42
      43      48      50      58      59      60      89      26      28      31
      32      33      47      49      68      25      34      35      36      40
      46      50      75      27      37      43      44      45      48      51
      96      34      46      52      53      54      31      47      55      56
      57      43      48      58      59      60      29      30      49      61
      62      63      64      65      66      67      30      49      61      62
      63      64      65      66      67      49      61      62      63      64
      65      66      67      32      33      47      68      69      70      71
      72      73      74      33      47      68      69      70      71      72
      73      74      47      68      69      70      71      72      73      74
      35      36      46      75      76      77      78      79      80      81
      36      46      75      76      77      78      79      80      81      46
      75      76      77      78      79      80      81      38      39      51
      82      83      84      85      86      87      88      39      51      82
      83      84      85      86      87      88      51      82      83      84
      85      86      87      88      41      42      50      89      90      91
      92      93      94      95      42      50      89      90      91      92
      93      94      95      50      89      90      91      92      93      94
      95      44      45      48      96      97      98      99     100     101
     102      45      48      96      97      98      99     100     101     102
      48      96      97      98      99     100     101     102      75      68
      96      61      89      82      53      54      54       0      56      57
      57       0      59      60      60       0      62      63      64      65
      66      67      63      64      64       0      66      67      67       0
      69      70      71      72      73      74      70      71      71       0
      73      74      74       0      76      77      78      79      80      81
      77      78      78       0      80      81      81       0      83      84
      85      86      87      88      84      85      85       0      87      88
      88       0      90      91      92      93      94      95      91      92
      92       0      94      95      95       0      97      98      99     100
     101     102      98      99      99       0     101     102     102       0
%FLAG HBOND_ACOEF                                                               
%FORMAT(5E16.8)                                                                 

%FLAG HBOND_BCOEF                                                               
%FORMAT(5E16.8)                                                                 

%FLAG HBCUT                                                                     
%FORMAT(5E16.8)                                                                 

%FLAG AMBER_ATOM_TYPE                                                           
%FORMAT(20a4)                                                                   
os  os  os  o   o   o   o   o   o   n   n   n   c3  c3  c3  c3  c3  c3  c   c   
c   c   c   c   c3  c3  c3  c3  c3  c3  c3  c3  c3  c3  c3  c3  c3  c3  c3  c3  
c3  c3  c3  c3  c3  h1  h1  h1  h1  h1  h1  h1  h1  h1  h1  h1  h1  h1  h1  h1  
hc  hc  hc  hc  hc  hc  hc  hc  hc  hc  hc  hc  hc  hc  hc  hc  hc  hc  hc  hc  
hc  hc  hc  hc  hc  hc  hc  hc  hc  hc  hc  hc  hc  hc  hc  hc  hc  hc  hc  hc  
hc  hc  
%FLAG TREE_CHAIN_CLASSIFICATION                                                 
%FORMAT(20a4)                                                                   
BLA BLA BLA BLA BLA BLA BLA BLA BLA BLA BLA BLA BLA BLA BLA BLA BLA BLA BLA BLA 
BLA BLA BLA BLA BLA BLA BLA BLA BLA BLA BLA BLA BLA BLA BLA BLA BLA BLA BLA BLA 
BLA BLA BLA BLA BLA BLA BLA BLA BLA BLA BLA BLA BLA BLA BLA BLA BLA BLA BLA BLA 
BLA BLA BLA BLA BLA BLA BLA BLA BLA BLA BLA BLA BLA BLA BLA BLA BLA BLA BLA BLA 
BLA BLA BLA BLA BLA BLA BLA BLA BLA BLA BLA BLA BLA BLA BLA BLA BLA BLA BLA BLA 
BLA BLA 
%FLAG JOIN_ARRAY                                                                
%FORMAT(10I8)                                                                   
       0       0       0       0       0       0       0       0       0       0
       0       0       0       0       0       0       0       0       0       0
       0       0       0       0       0       0       0       0       0       0
       0       0       0       0       0       0       0       0       0       0
       0       0       0       0       0       0       0       0       0       0
       0       0       0       0       0       0       0       0       0       0
       0       0       0       0       0       0       0       0       0       0
       0       0       0       0       0       0       0       0       0       0
       0       0       0       0       0       0       0       0       0       0
       0       0       0       0       0       0       0       0       0       0
       0       0
%FLAG IROTAT                                                                    
%FORMAT(10I8)                                                                   
       0       0       0       0       0       0       0       0       0       0
       0       0       0       0       0       0       0       0       0       0
       0       0       0       0       0       0       0       0       0       0
       0       0       0       0       0       0       0       0       0       0
       0       0       0       0       0       0       0       0       0       0
       0       0       0       0       0       0       0       0       0       0
       0       0       0       0       0       0       0       0       0       0
       0       0       0       0       0       0       0       0       0       0
       0       0       0       0       0       0       0       0       0       0
       0       0       0       0       0       0       0       0       0       0
       0       0
%FLAG RADIUS_SET                                                                
%FORMAT(1a80)                                                                   
modified Bondi radii (mbondi)                                                   
%FLAG RADII                                                                     
%FORMAT(5E16.8)                                                                 
  1.50000000E+00  1.50000000E+00  1.50000000E+00  1.50000000E+00  1.50000000E+00
  1.50000000E+00  1.50000000E+00  1.50000000E+00  1.50000000E+00  1.55000000E+00
  1.55000000E+00  1.55000000E+00  1.70000000E+00  1.70000000E+00  1.70000000E+00
  1.70000000E+00  1.70000000E+00  1.70000000E+00  1.70000000E+00  1.70000000E+00
  1.70000000E+00  1.70000000E+00  1.70000000E+00  1.70000000E+00  1.70000000E+00
  1.70000000E+00  1.70000000E+00  1.70000000E+00  1.70000000E+00  1.70000000E+00
  1.70000000E+00  1.70000000E+00  1.70000000E+00  1.70000000E+00  1.70000000E+00
  1.70000000E+00  1.70000000E+00  1.70000000E+00  1.70000000E+00  1.70000000E+00
  1.70000000E+00  1.70000000E+00  1.70000000E+00  1.70000000E+00  1.70000000E+00
  1.30000000E+00  1.30000000E+00  1.30000000E+00  1.30000000E+00  1.30000000E+00
  1.30000000E+00  1.30000000E+00  1.30000000E+00  1.30000000E+00  1.30000000E+00
  1.30000000E+00  1.30000000E+00  1.30000000E+00  1.30000000E+00  1.30000000E+00
  1.30000000E+00  1.30000000E+00  1.30000000E+00  1.30000000E+00  1.30000000E+00
  1.30000000E+00  1.30000000E+00  1.30000000E+00  1.30000000E+00  1.30000000E+00
  1.30000000E+00  1.30000000E+00  1.30000000E+00  1.30000000E+00  1.30000000E+00
  1.30000000E+00  1.30000000E+00  1.30000000E+00  1.30000000E+00  1.30000000E+00
  1.30000000E+00  1.30000000E+00  1.30000000E+00  1.30000000E+00  1.30000000E+00
  1.30000000E+00  1.30000000E+00  1.30000000E+00  1.30000000E+00  1.30000000E+00
  1.30000000E+00  1.30000000E+00  1.30000000E+00  1.30000000E+00  1.30000000E+00
  1.30000000E+00  1.30000000E+00  1.30000000E+00  1.30000000E+00  1.30000000E+00
  1.30000000E+00  1.30000000E+00
%FLAG SCREEN                                                                    
%FORMAT(5E16.8)                                                                 
  8.50000000E-01  8.50000000E-01  8.50000000E-01  8.50000000E-01  8.50000000E-01
  8.50000000E-01  8.50000000E-01  8.50000000E-01  8.50000000E-01  7.90000000E-01
  7.90000000E-01  7.90000000E-01  7.20000000E-01  7.20000000E-01  7.20000000E-01
  7.20000000E-01  7.20000000E-01  7.20000000E-01  7.20000000E-01  7.20000000E-01
  7.20000000E-01  7.20000000E-01  7.20000000E-01  7.20000000E-01  7.20000000E-01
  7.20000000E-01  7.20000000E-01  7.20000000E-01  7.20000000E-01  7.20000000E-01
  7.20000000E-01  7.20000000E-01  7.20000000E-01  7.20000000E-01  7.20000000E-01
  7.20000000E-01  7.20000000E-01  7.20000000E-01  7.20000000E-01  7.20000000E-01
  7.20000000E-01  7.20000000E-01  7.20000000E-01  7.20000000E-01  7.20000000E-01
  8.50000000E-01  8.50000000E-01  8.50000000E-01  8.50000000E-01  8.50000000E-01
  8.50000000E-01  8.50000000E-01  8.50000000E-01  8.50000000E-01  8.50000000E-01
  8.50000000E-01  8.50000000E-01  8.50000000E-01  8.50000000E-01  8.50000000E-01
  8.50000000E-01  8.50000000E-01  8.50000000E-01  8.50000000E-01  8.50000000E-01
  8.50000000E-01  8.50000000E-01  8.50000000E-01  8.50000000E-01  8.50000000E-01
  8.50000000E-01  8.50000000E-01  8.50000000E-01  8.50000000E-01  8.50000000E-01
  8.50000000E-01  8.50000000E-01  8.50000000E-01  8.50000000E-01  8.50000000E-01
  8.50000000E-01  8.50000000E-01  8.50000000E-01  8.50000000E-01  8.50000000E-01
  8.50000000E-01  8.50000000E-01  8.50000000E-01  8.50000000E-01  8.50000000E-01
  8.50000000E-01  8.50000000E-01  8.50000000E-01  8.50000000E-01  8.50000000E-01
  8.50000000E-01  8.50000000E-01  8.50000000E-01  8.50000000E-01  8.50000000E-01
  8.50000000E-01  8.50000000E-01
%FLAG IPOL                                                                      
%FORMAT(1I8)                                                                    
       0
