h2ibp_GMX.gro created by acpype (v: 2023.10.27) on Thu Sep  4 07:59:51 2025
 33
    1  UNL    C    1   0.725   0.345  -1.402
    1  UNL   C1    2   0.815   0.248  -1.442
    1  UNL   C2    3   0.946   0.253  -1.399
    1  UNL   C3    4   0.988   0.355  -1.315
    1  UNL   C4    5   0.898   0.451  -1.274
    1  UNL   C5    6   0.767   0.447  -1.318
    1  UNL   C6    7   0.582   0.339  -1.449
    1  UNL   C7    8   0.514   0.216  -1.389
    1  UNL   C8    9   0.579   0.331  -1.599
    1  UNL    O   10   0.535   0.233  -1.653
    1  UNL   O1   11   0.626   0.433  -1.673
    1  UNL    H   12   0.721   0.454  -1.672
    1  UNL   C9   13   1.131   0.361  -1.268
    1  UNL  C10   14   1.175   0.221  -1.224
    1  UNL  C11   15   1.296   0.177  -1.307
    1  UNL  C12   16   1.214   0.224  -1.076
    1  UNL   H1   17   0.784   0.172  -1.505
    1  UNL   H2   18   1.014   0.181  -1.429
    1  UNL   H3   19   0.928   0.527  -1.211
    1  UNL   H4   20   0.700   0.519  -1.288
    1  UNL   H5   21   0.531   0.428  -1.417
    1  UNL   H6   22   0.565   0.128  -1.421
    1  UNL   H7   23   0.412   0.213  -1.423
    1  UNL   H8   24   0.516   0.222  -1.282
    1  UNL   H9   25   1.139   0.428  -1.186
    1  UNL  H10   26   1.193   0.394  -1.348
    1  UNL  H11   27   1.095   0.152  -1.239
    1  UNL  H12   28   1.377   0.247  -1.293
    1  UNL  H13   29   1.270   0.175  -1.411
    1  UNL  H14   30   1.327   0.080  -1.276
    1  UNL  H15   31   1.294   0.294  -1.062
    1  UNL  H16   32   1.245   0.127  -1.045
    1  UNL  H17   33   1.129   0.255  -1.018
   19.29000     8.94400    13.09800
